# Forces   
# CofR     : (0.000e+00 0.000e+00 0.000e+00)
# Time     forces(pressure viscous porous)	moments(pressure viscous porous)
1          	((-1.510e+02 1.282e+01 -3.135e+02) (-2.486e-01 2.021e-03 1.327e-02) (0.000e+00 0.000e+00 0.000e+00)) ((-1.132e+02 1.657e+02 7.062e+01) (6.197e-03 1.230e-02 1.045e-01) (0.000e+00 0.000e+00 0.000e+00))
2          	((-5.808e+01 2.290e+00 -1.554e+02) (-2.134e-01 1.694e-03 3.136e-02) (0.000e+00 0.000e+00 0.000e+00)) ((-5.561e+01 8.845e+01 2.613e+01) (1.369e-02 6.354e-03 9.000e-02) (0.000e+00 0.000e+00 0.000e+00))
3          	((-3.141e+01 -8.394e-01 -1.051e+02) (-2.120e-01 1.722e-03 3.746e-02) (0.000e+00 0.000e+00 0.000e+00)) ((-3.733e+01 6.256e+01 1.336e+01) (1.632e-02 4.457e-03 8.936e-02) (0.000e+00 0.000e+00 0.000e+00))
4          	((-1.647e+01 -2.335e+00 -7.700e+01) (-2.096e-01 1.724e-03 4.069e-02) (0.000e+00 0.000e+00 0.000e+00)) ((-2.705e+01 4.809e+01 6.341e+00) (1.761e-02 3.976e-03 8.851e-02) (0.000e+00 0.000e+00 0.000e+00))
5          	((-1.317e+01 -2.432e+00 -7.053e+01) (-2.110e-01 1.881e-03 4.220e-02) (0.000e+00 0.000e+00 0.000e+00)) ((-2.455e+01 4.471e+01 4.900e+00) (1.822e-02 3.524e-03 8.921e-02) (0.000e+00 0.000e+00 0.000e+00))
6          	((-1.335e+01 -2.384e+00 -7.064e+01) (-2.129e-01 2.040e-03 4.338e-02) (0.000e+00 0.000e+00 0.000e+00)) ((-2.452e+01 4.481e+01 5.007e+00) (1.868e-02 3.089e-03 9.008e-02) (0.000e+00 0.000e+00 0.000e+00))
7          	((-1.537e+01 -2.318e+00 -7.513e+01) (-2.140e-01 2.210e-03 4.386e-02) (0.000e+00 0.000e+00 0.000e+00)) ((-2.613e+01 4.734e+01 5.911e+00) (1.890e-02 2.943e-03 9.068e-02) (0.000e+00 0.000e+00 0.000e+00))
8          	((-1.677e+01 -2.294e+00 -7.832e+01) (-2.146e-01 2.402e-03 4.408e-02) (0.000e+00 0.000e+00 0.000e+00)) ((-2.731e+01 4.917e+01 6.544e+00) (1.903e-02 2.872e-03 9.105e-02) (0.000e+00 0.000e+00 0.000e+00))
9          	((-1.826e+01 -2.318e+00 -8.231e+01) (-2.150e-01 2.615e-03 4.436e-02) (0.000e+00 0.000e+00 0.000e+00)) ((-2.881e+01 5.152e+01 7.207e+00) (1.919e-02 2.770e-03 9.132e-02) (0.000e+00 0.000e+00 0.000e+00))
10         	((-1.875e+01 -2.347e+00 -8.400e+01) (-2.153e-01 2.789e-03 4.494e-02) (0.000e+00 0.000e+00 0.000e+00)) ((-2.947e+01 5.258e+01 7.443e+00) (1.946e-02 2.558e-03 9.149e-02) (0.000e+00 0.000e+00 0.000e+00))
11         	((-1.919e+01 -2.305e+00 -8.581e+01) (-2.156e-01 2.962e-03 4.555e-02) (0.000e+00 0.000e+00 0.000e+00)) ((-3.018e+01 5.373e+01 7.692e+00) (1.974e-02 2.322e-03 9.164e-02) (0.000e+00 0.000e+00 0.000e+00))
12         	((-1.950e+01 -2.221e+00 -8.745e+01) (-2.160e-01 3.153e-03 4.605e-02) (0.000e+00 0.000e+00 0.000e+00)) ((-3.081e+01 5.479e+01 7.899e+00) (2.000e-02 2.084e-03 9.183e-02) (0.000e+00 0.000e+00 0.000e+00))
13         	((-1.960e+01 -2.091e+00 -8.887e+01) (-2.160e-01 3.312e-03 4.700e-02) (0.000e+00 0.000e+00 0.000e+00)) ((-3.134e+01 5.576e+01 8.041e+00) (2.042e-02 1.779e-03 9.186e-02) (0.000e+00 0.000e+00 0.000e+00))
14         	((-1.957e+01 -1.922e+00 -9.014e+01) (-2.155e-01 3.453e-03 4.835e-02) (0.000e+00 0.000e+00 0.000e+00)) ((-3.180e+01 5.668e+01 8.138e+00) (2.099e-02 1.418e-03 9.170e-02) (0.000e+00 0.000e+00 0.000e+00))
15         	((-1.947e+01 -1.732e+00 -9.133e+01) (-2.148e-01 3.586e-03 4.968e-02) (0.000e+00 0.000e+00 0.000e+00)) ((-3.221e+01 5.755e+01 8.218e+00) (2.157e-02 1.101e-03 9.147e-02) (0.000e+00 0.000e+00 0.000e+00))
16         	((-1.937e+01 -1.540e+00 -9.247e+01) (-2.141e-01 3.666e-03 5.096e-02) (0.000e+00 0.000e+00 0.000e+00)) ((-3.259e+01 5.840e+01 8.297e+00) (2.213e-02 8.236e-04 9.124e-02) (0.000e+00 0.000e+00 0.000e+00))
17         	((-1.927e+01 -1.350e+00 -9.348e+01) (-2.136e-01 3.721e-03 5.191e-02) (0.000e+00 0.000e+00 0.000e+00)) ((-3.291e+01 5.917e+01 8.372e+00) (2.257e-02 6.415e-04 9.104e-02) (0.000e+00 0.000e+00 0.000e+00))
18         	((-1.919e+01 -1.184e+00 -9.439e+01) (-2.130e-01 3.768e-03 5.253e-02) (0.000e+00 0.000e+00 0.000e+00)) ((-3.320e+01 5.987e+01 8.440e+00) (2.288e-02 5.746e-04 9.085e-02) (0.000e+00 0.000e+00 0.000e+00))
19         	((-1.912e+01 -1.049e+00 -9.525e+01) (-2.121e-01 3.800e-03 5.293e-02) (0.000e+00 0.000e+00 0.000e+00)) ((-3.345e+01 6.053e+01 8.501e+00) (2.312e-02 6.215e-04 9.058e-02) (0.000e+00 0.000e+00 0.000e+00))
20         	((-1.908e+01 -9.600e-01 -9.595e+01) (-2.119e-01 3.829e-03 5.310e-02) (0.000e+00 0.000e+00 0.000e+00)) ((-3.366e+01 6.108e+01 8.546e+00) (2.326e-02 6.678e-04 9.055e-02) (0.000e+00 0.000e+00 0.000e+00))
21         	((-1.909e+01 -8.705e-01 -9.700e+01) (-2.120e-01 3.849e-03 5.303e-02) (0.000e+00 0.000e+00 0.000e+00)) ((-3.398e+01 6.186e+01 8.615e+00) (2.331e-02 7.587e-04 9.064e-02) (0.000e+00 0.000e+00 0.000e+00))
22         	((-1.909e+01 -8.276e-01 -9.766e+01) (-2.123e-01 3.867e-03 5.284e-02) (0.000e+00 0.000e+00 0.000e+00)) ((-3.417e+01 6.235e+01 8.656e+00) (2.330e-02 8.838e-04 9.079e-02) (0.000e+00 0.000e+00 0.000e+00))
23         	((-1.914e+01 -7.728e-01 -9.869e+01) (-2.127e-01 3.876e-03 5.260e-02) (0.000e+00 0.000e+00 0.000e+00)) ((-3.449e+01 6.310e+01 8.727e+00) (2.326e-02 1.036e-03 9.098e-02) (0.000e+00 0.000e+00 0.000e+00))
24         	((-1.916e+01 -7.438e-01 -9.933e+01) (-2.132e-01 3.879e-03 5.240e-02) (0.000e+00 0.000e+00 0.000e+00)) ((-3.468e+01 6.357e+01 8.765e+00) (2.323e-02 1.174e-03 9.121e-02) (0.000e+00 0.000e+00 0.000e+00))
25         	((-1.918e+01 -6.824e-01 -1.002e+02) (-2.137e-01 3.889e-03 5.225e-02) (0.000e+00 0.000e+00 0.000e+00)) ((-3.497e+01 6.425e+01 8.827e+00) (2.321e-02 1.309e-03 9.146e-02) (0.000e+00 0.000e+00 0.000e+00))
26         	((-1.915e+01 -6.514e-01 -1.008e+02) (-2.142e-01 3.896e-03 5.218e-02) (0.000e+00 0.000e+00 0.000e+00)) ((-3.514e+01 6.466e+01 8.846e+00) (2.322e-02 1.439e-03 9.171e-02) (0.000e+00 0.000e+00 0.000e+00))
27         	((-1.909e+01 -5.641e-01 -1.015e+02) (-2.147e-01 3.901e-03 5.219e-02) (0.000e+00 0.000e+00 0.000e+00)) ((-3.537e+01 6.522e+01 8.882e+00) (2.325e-02 1.563e-03 9.196e-02) (0.000e+00 0.000e+00 0.000e+00))
28         	((-1.903e+01 -5.254e-01 -1.020e+02) (-2.151e-01 3.911e-03 5.222e-02) (0.000e+00 0.000e+00 0.000e+00)) ((-3.551e+01 6.557e+01 8.888e+00) (2.330e-02 1.695e-03 9.220e-02) (0.000e+00 0.000e+00 0.000e+00))
29         	((-1.895e+01 -4.233e-01 -1.026e+02) (-2.154e-01 3.926e-03 5.226e-02) (0.000e+00 0.000e+00 0.000e+00)) ((-3.571e+01 6.608e+01 8.916e+00) (2.334e-02 1.839e-03 9.242e-02) (0.000e+00 0.000e+00 0.000e+00))
30         	((-1.889e+01 -3.906e-01 -1.030e+02) (-2.158e-01 3.951e-03 5.232e-02) (0.000e+00 0.000e+00 0.000e+00)) ((-3.585e+01 6.642e+01 8.917e+00) (2.340e-02 1.967e-03 9.265e-02) (0.000e+00 0.000e+00 0.000e+00))
31         	((-1.884e+01 -3.192e-01 -1.037e+02) (-2.162e-01 3.973e-03 5.238e-02) (0.000e+00 0.000e+00 0.000e+00)) ((-3.607e+01 6.692e+01 8.936e+00) (2.345e-02 2.094e-03 9.287e-02) (0.000e+00 0.000e+00 0.000e+00))
32         	((-1.880e+01 -3.162e-01 -1.041e+02) (-2.166e-01 3.994e-03 5.244e-02) (0.000e+00 0.000e+00 0.000e+00)) ((-3.621e+01 6.724e+01 8.931e+00) (2.351e-02 2.209e-03 9.313e-02) (0.000e+00 0.000e+00 0.000e+00))
33         	((-1.878e+01 -2.946e-01 -1.048e+02) (-2.171e-01 4.019e-03 5.250e-02) (0.000e+00 0.000e+00 0.000e+00)) ((-3.645e+01 6.777e+01 8.947e+00) (2.356e-02 2.316e-03 9.342e-02) (0.000e+00 0.000e+00 0.000e+00))
34         	((-1.876e+01 -3.177e-01 -1.052e+02) (-2.176e-01 4.036e-03 5.257e-02) (0.000e+00 0.000e+00 0.000e+00)) ((-3.660e+01 6.807e+01 8.940e+00) (2.363e-02 2.404e-03 9.373e-02) (0.000e+00 0.000e+00 0.000e+00))
35         	((-1.875e+01 -3.038e-01 -1.059e+02) (-2.181e-01 4.064e-03 5.263e-02) (0.000e+00 0.000e+00 0.000e+00)) ((-3.684e+01 6.855e+01 8.961e+00) (2.369e-02 2.491e-03 9.408e-02) (0.000e+00 0.000e+00 0.000e+00))
36         	((-1.872e+01 -2.906e-01 -1.063e+02) (-2.187e-01 4.094e-03 5.271e-02) (0.000e+00 0.000e+00 0.000e+00)) ((-3.697e+01 6.883e+01 8.967e+00) (2.376e-02 2.559e-03 9.445e-02) (0.000e+00 0.000e+00 0.000e+00))
37         	((-1.867e+01 -2.097e-01 -1.067e+02) (-2.192e-01 4.141e-03 5.280e-02) (0.000e+00 0.000e+00 0.000e+00)) ((-3.713e+01 6.919e+01 8.996e+00) (2.383e-02 2.626e-03 9.483e-02) (0.000e+00 0.000e+00 0.000e+00))
38         	((-1.863e+01 -1.676e-01 -1.070e+02) (-2.197e-01 4.185e-03 5.291e-02) (0.000e+00 0.000e+00 0.000e+00)) ((-3.722e+01 6.939e+01 9.011e+00) (2.390e-02 2.681e-03 9.519e-02) (0.000e+00 0.000e+00 0.000e+00))
39         	((-1.852e+01 -5.601e-02 -1.072e+02) (-2.202e-01 4.238e-03 5.304e-02) (0.000e+00 0.000e+00 0.000e+00)) ((-3.729e+01 6.960e+01 9.035e+00) (2.398e-02 2.730e-03 9.550e-02) (0.000e+00 0.000e+00 0.000e+00))
40         	((-1.848e+01 -5.202e-03 -1.073e+02) (-2.205e-01 4.288e-03 5.316e-02) (0.000e+00 0.000e+00 0.000e+00)) ((-3.733e+01 6.973e+01 9.056e+00) (2.405e-02 2.769e-03 9.577e-02) (0.000e+00 0.000e+00 0.000e+00))
41         	((-1.841e+01 9.856e-02 -1.075e+02) (-2.208e-01 4.337e-03 5.331e-02) (0.000e+00 0.000e+00 0.000e+00)) ((-3.735e+01 6.985e+01 9.091e+00) (2.412e-02 2.802e-03 9.599e-02) (0.000e+00 0.000e+00 0.000e+00))
42         	((-1.840e+01 1.510e-01 -1.076e+02) (-2.211e-01 4.383e-03 5.346e-02) (0.000e+00 0.000e+00 0.000e+00)) ((-3.735e+01 6.994e+01 9.125e+00) (2.419e-02 2.826e-03 9.620e-02) (0.000e+00 0.000e+00 0.000e+00))
43         	((-1.841e+01 2.286e-01 -1.077e+02) (-2.214e-01 4.414e-03 5.362e-02) (0.000e+00 0.000e+00 0.000e+00)) ((-3.732e+01 7.002e+01 9.174e+00) (2.427e-02 2.843e-03 9.639e-02) (0.000e+00 0.000e+00 0.000e+00))
44         	((-1.843e+01 3.143e-01 -1.077e+02) (-2.218e-01 4.446e-03 5.381e-02) (0.000e+00 0.000e+00 0.000e+00)) ((-3.727e+01 7.007e+01 9.230e+00) (2.436e-02 2.854e-03 9.659e-02) (0.000e+00 0.000e+00 0.000e+00))
45         	((-1.847e+01 4.004e-01 -1.078e+02) (-2.221e-01 4.471e-03 5.399e-02) (0.000e+00 0.000e+00 0.000e+00)) ((-3.722e+01 7.013e+01 9.288e+00) (2.445e-02 2.865e-03 9.680e-02) (0.000e+00 0.000e+00 0.000e+00))
46         	((-1.851e+01 4.809e-01 -1.079e+02) (-2.226e-01 4.479e-03 5.418e-02) (0.000e+00 0.000e+00 0.000e+00)) ((-3.717e+01 7.021e+01 9.340e+00) (2.454e-02 2.873e-03 9.703e-02) (0.000e+00 0.000e+00 0.000e+00))
47         	((-1.855e+01 5.404e-01 -1.080e+02) (-2.230e-01 4.463e-03 5.438e-02) (0.000e+00 0.000e+00 0.000e+00)) ((-3.712e+01 7.030e+01 9.380e+00) (2.464e-02 2.881e-03 9.726e-02) (0.000e+00 0.000e+00 0.000e+00))
48         	((-1.858e+01 5.587e-01 -1.081e+02) (-2.236e-01 4.437e-03 5.459e-02) (0.000e+00 0.000e+00 0.000e+00)) ((-3.707e+01 7.040e+01 9.395e+00) (2.474e-02 2.890e-03 9.752e-02) (0.000e+00 0.000e+00 0.000e+00))
49         	((-1.860e+01 5.341e-01 -1.083e+02) (-2.241e-01 4.408e-03 5.479e-02) (0.000e+00 0.000e+00 0.000e+00)) ((-3.703e+01 7.052e+01 9.385e+00) (2.484e-02 2.908e-03 9.782e-02) (0.000e+00 0.000e+00 0.000e+00))
50         	((-1.857e+01 4.770e-01 -1.084e+02) (-2.247e-01 4.368e-03 5.500e-02) (0.000e+00 0.000e+00 0.000e+00)) ((-3.698e+01 7.063e+01 9.337e+00) (2.494e-02 2.930e-03 9.814e-02) (0.000e+00 0.000e+00 0.000e+00))
51         	((-1.850e+01 4.056e-01 -1.085e+02) (-2.254e-01 4.375e-03 5.519e-02) (0.000e+00 0.000e+00 0.000e+00)) ((-3.690e+01 7.070e+01 9.258e+00) (2.504e-02 2.967e-03 9.852e-02) (0.000e+00 0.000e+00 0.000e+00))
52         	((-1.838e+01 3.297e-01 -1.084e+02) (-2.262e-01 4.328e-03 5.544e-02) (0.000e+00 0.000e+00 0.000e+00)) ((-3.680e+01 7.073e+01 9.157e+00) (2.517e-02 2.990e-03 9.892e-02) (0.000e+00 0.000e+00 0.000e+00))
53         	((-1.824e+01 2.588e-01 -1.083e+02) (-2.269e-01 4.298e-03 5.570e-02) (0.000e+00 0.000e+00 0.000e+00)) ((-3.667e+01 7.073e+01 9.045e+00) (2.531e-02 3.015e-03 9.935e-02) (0.000e+00 0.000e+00 0.000e+00))
54         	((-1.811e+01 1.900e-01 -1.082e+02) (-2.278e-01 4.297e-03 5.597e-02) (0.000e+00 0.000e+00 0.000e+00)) ((-3.654e+01 7.070e+01 8.939e+00) (2.545e-02 3.039e-03 9.981e-02) (0.000e+00 0.000e+00 0.000e+00))
55         	((-1.801e+01 1.236e-01 -1.082e+02) (-2.286e-01 4.304e-03 5.624e-02) (0.000e+00 0.000e+00 0.000e+00)) ((-3.645e+01 7.070e+01 8.850e+00) (2.560e-02 3.059e-03 1.003e-01) (0.000e+00 0.000e+00 0.000e+00))
56         	((-1.796e+01 5.612e-02 -1.082e+02) (-2.295e-01 4.350e-03 5.651e-02) (0.000e+00 0.000e+00 0.000e+00)) ((-3.641e+01 7.074e+01 8.785e+00) (2.575e-02 3.082e-03 1.008e-01) (0.000e+00 0.000e+00 0.000e+00))
57         	((-1.795e+01 -6.518e-03 -1.083e+02) (-2.304e-01 4.404e-03 5.680e-02) (0.000e+00 0.000e+00 0.000e+00)) ((-3.644e+01 7.084e+01 8.747e+00) (2.590e-02 3.106e-03 1.013e-01) (0.000e+00 0.000e+00 0.000e+00))
58         	((-1.795e+01 -6.667e-02 -1.085e+02) (-2.313e-01 4.472e-03 5.709e-02) (0.000e+00 0.000e+00 0.000e+00)) ((-3.650e+01 7.096e+01 8.724e+00) (2.606e-02 3.125e-03 1.018e-01) (0.000e+00 0.000e+00 0.000e+00))
59         	((-1.795e+01 -1.615e-01 -1.087e+02) (-2.322e-01 4.521e-03 5.738e-02) (0.000e+00 0.000e+00 0.000e+00)) ((-3.655e+01 7.110e+01 8.686e+00) (2.621e-02 3.146e-03 1.023e-01) (0.000e+00 0.000e+00 0.000e+00))
60         	((-1.795e+01 -2.632e-01 -1.088e+02) (-2.331e-01 4.556e-03 5.766e-02) (0.000e+00 0.000e+00 0.000e+00)) ((-3.657e+01 7.115e+01 8.654e+00) (2.635e-02 3.168e-03 1.028e-01) (0.000e+00 0.000e+00 0.000e+00))
61         	((-1.791e+01 -4.552e-01 -1.088e+02) (-2.340e-01 4.566e-03 5.791e-02) (0.000e+00 0.000e+00 0.000e+00)) ((-3.654e+01 7.118e+01 8.577e+00) (2.648e-02 3.190e-03 1.033e-01) (0.000e+00 0.000e+00 0.000e+00))
62         	((-1.791e+01 -6.078e-01 -1.088e+02) (-2.349e-01 4.548e-03 5.815e-02) (0.000e+00 0.000e+00 0.000e+00)) ((-3.652e+01 7.118e+01 8.534e+00) (2.659e-02 3.214e-03 1.037e-01) (0.000e+00 0.000e+00 0.000e+00))
63         	((-1.791e+01 -8.573e-01 -1.088e+02) (-2.358e-01 4.493e-03 5.839e-02) (0.000e+00 0.000e+00 0.000e+00)) ((-3.650e+01 7.119e+01 8.459e+00) (2.671e-02 3.229e-03 1.042e-01) (0.000e+00 0.000e+00 0.000e+00))
64         	((-1.792e+01 -1.007e+00 -1.088e+02) (-2.367e-01 4.441e-03 5.864e-02) (0.000e+00 0.000e+00 0.000e+00)) ((-3.650e+01 7.123e+01 8.423e+00) (2.682e-02 3.240e-03 1.046e-01) (0.000e+00 0.000e+00 0.000e+00))
65         	((-1.795e+01 -1.168e+00 -1.089e+02) (-2.376e-01 4.393e-03 5.890e-02) (0.000e+00 0.000e+00 0.000e+00)) ((-3.653e+01 7.131e+01 8.383e+00) (2.693e-02 3.249e-03 1.050e-01) (0.000e+00 0.000e+00 0.000e+00))
66         	((-1.798e+01 -1.262e+00 -1.091e+02) (-2.385e-01 4.368e-03 5.918e-02) (0.000e+00 0.000e+00 0.000e+00)) ((-3.658e+01 7.143e+01 8.364e+00) (2.705e-02 3.251e-03 1.054e-01) (0.000e+00 0.000e+00 0.000e+00))
67         	((-1.800e+01 -1.276e+00 -1.094e+02) (-2.394e-01 4.369e-03 5.947e-02) (0.000e+00 0.000e+00 0.000e+00)) ((-3.663e+01 7.157e+01 8.361e+00) (2.717e-02 3.255e-03 1.058e-01) (0.000e+00 0.000e+00 0.000e+00))
68         	((-1.799e+01 -1.221e+00 -1.096e+02) (-2.403e-01 4.371e-03 5.976e-02) (0.000e+00 0.000e+00 0.000e+00)) ((-3.669e+01 7.171e+01 8.373e+00) (2.729e-02 3.259e-03 1.062e-01) (0.000e+00 0.000e+00 0.000e+00))
69         	((-1.796e+01 -1.125e+00 -1.098e+02) (-2.413e-01 4.358e-03 6.002e-02) (0.000e+00 0.000e+00 0.000e+00)) ((-3.675e+01 7.184e+01 8.392e+00) (2.739e-02 3.272e-03 1.066e-01) (0.000e+00 0.000e+00 0.000e+00))
70         	((-1.792e+01 -1.015e+00 -1.099e+02) (-2.422e-01 4.323e-03 6.028e-02) (0.000e+00 0.000e+00 0.000e+00)) ((-3.680e+01 7.196e+01 8.411e+00) (2.747e-02 3.285e-03 1.070e-01) (0.000e+00 0.000e+00 0.000e+00))
71         	((-1.788e+01 -9.147e-01 -1.101e+02) (-2.431e-01 4.267e-03 6.051e-02) (0.000e+00 0.000e+00 0.000e+00)) ((-3.685e+01 7.207e+01 8.424e+00) (2.754e-02 3.302e-03 1.074e-01) (0.000e+00 0.000e+00 0.000e+00))
72         	((-1.783e+01 -8.291e-01 -1.102e+02) (-2.440e-01 4.190e-03 6.072e-02) (0.000e+00 0.000e+00 0.000e+00)) ((-3.691e+01 7.217e+01 8.434e+00) (2.760e-02 3.322e-03 1.078e-01) (0.000e+00 0.000e+00 0.000e+00))
73         	((-1.780e+01 -7.565e-01 -1.104e+02) (-2.447e-01 4.134e-03 6.089e-02) (0.000e+00 0.000e+00 0.000e+00)) ((-3.697e+01 7.228e+01 8.443e+00) (2.764e-02 3.348e-03 1.081e-01) (0.000e+00 0.000e+00 0.000e+00))
74         	((-1.779e+01 -6.918e-01 -1.105e+02) (-2.455e-01 4.106e-03 6.106e-02) (0.000e+00 0.000e+00 0.000e+00)) ((-3.704e+01 7.240e+01 8.455e+00) (2.767e-02 3.373e-03 1.085e-01) (0.000e+00 0.000e+00 0.000e+00))
75         	((-1.779e+01 -6.295e-01 -1.107e+02) (-2.462e-01 4.063e-03 6.120e-02) (0.000e+00 0.000e+00 0.000e+00)) ((-3.712e+01 7.252e+01 8.475e+00) (2.771e-02 3.399e-03 1.088e-01) (0.000e+00 0.000e+00 0.000e+00))
76         	((-1.782e+01 -5.727e-01 -1.109e+02) (-2.468e-01 4.035e-03 6.136e-02) (0.000e+00 0.000e+00 0.000e+00)) ((-3.721e+01 7.266e+01 8.505e+00) (2.777e-02 3.416e-03 1.092e-01) (0.000e+00 0.000e+00 0.000e+00))
77         	((-1.788e+01 -5.265e-01 -1.112e+02) (-2.475e-01 4.000e-03 6.156e-02) (0.000e+00 0.000e+00 0.000e+00)) ((-3.731e+01 7.281e+01 8.542e+00) (2.786e-02 3.414e-03 1.096e-01) (0.000e+00 0.000e+00 0.000e+00))
78         	((-1.796e+01 -4.832e-01 -1.115e+02) (-2.482e-01 3.965e-03 6.182e-02) (0.000e+00 0.000e+00 0.000e+00)) ((-3.743e+01 7.298e+01 8.591e+00) (2.799e-02 3.392e-03 1.100e-01) (0.000e+00 0.000e+00 0.000e+00))
79         	((-1.808e+01 -4.345e-01 -1.118e+02) (-2.490e-01 3.931e-03 6.213e-02) (0.000e+00 0.000e+00 0.000e+00)) ((-3.755e+01 7.316e+01 8.653e+00) (2.816e-02 3.353e-03 1.105e-01) (0.000e+00 0.000e+00 0.000e+00))
80         	((-1.821e+01 -3.772e-01 -1.121e+02) (-2.499e-01 3.879e-03 6.248e-02) (0.000e+00 0.000e+00 0.000e+00)) ((-3.768e+01 7.335e+01 8.726e+00) (2.837e-02 3.295e-03 1.111e-01) (0.000e+00 0.000e+00 0.000e+00))
81         	((-1.834e+01 -3.069e-01 -1.124e+02) (-2.508e-01 3.821e-03 6.288e-02) (0.000e+00 0.000e+00 0.000e+00)) ((-3.780e+01 7.354e+01 8.805e+00) (2.860e-02 3.220e-03 1.117e-01) (0.000e+00 0.000e+00 0.000e+00))
82         	((-1.844e+01 -2.177e-01 -1.127e+02) (-2.519e-01 3.752e-03 6.328e-02) (0.000e+00 0.000e+00 0.000e+00)) ((-3.789e+01 7.369e+01 8.880e+00) (2.885e-02 3.141e-03 1.124e-01) (0.000e+00 0.000e+00 0.000e+00))
83         	((-1.850e+01 -1.077e-01 -1.129e+02) (-2.530e-01 3.662e-03 6.367e-02) (0.000e+00 0.000e+00 0.000e+00)) ((-3.795e+01 7.379e+01 8.943e+00) (2.908e-02 3.061e-03 1.131e-01) (0.000e+00 0.000e+00 0.000e+00))
84         	((-1.850e+01 1.647e-02 -1.130e+02) (-2.541e-01 3.553e-03 6.403e-02) (0.000e+00 0.000e+00 0.000e+00)) ((-3.796e+01 7.384e+01 8.987e+00) (2.930e-02 2.989e-03 1.138e-01) (0.000e+00 0.000e+00 0.000e+00))
85         	((-1.846e+01 1.452e-01 -1.129e+02) (-2.553e-01 3.420e-03 6.434e-02) (0.000e+00 0.000e+00 0.000e+00)) ((-3.793e+01 7.383e+01 9.013e+00) (2.949e-02 2.926e-03 1.145e-01) (0.000e+00 0.000e+00 0.000e+00))
86         	((-1.840e+01 2.673e-01 -1.129e+02) (-2.564e-01 3.266e-03 6.461e-02) (0.000e+00 0.000e+00 0.000e+00)) ((-3.788e+01 7.380e+01 9.026e+00) (2.965e-02 2.874e-03 1.151e-01) (0.000e+00 0.000e+00 0.000e+00))
87         	((-1.834e+01 3.769e-01 -1.128e+02) (-2.575e-01 3.097e-03 6.483e-02) (0.000e+00 0.000e+00 0.000e+00)) ((-3.783e+01 7.378e+01 9.031e+00) (2.978e-02 2.829e-03 1.158e-01) (0.000e+00 0.000e+00 0.000e+00))
88         	((-1.830e+01 4.710e-01 -1.127e+02) (-2.585e-01 2.929e-03 6.502e-02) (0.000e+00 0.000e+00 0.000e+00)) ((-3.779e+01 7.377e+01 9.033e+00) (2.989e-02 2.788e-03 1.164e-01) (0.000e+00 0.000e+00 0.000e+00))
89         	((-1.828e+01 5.474e-01 -1.128e+02) (-2.595e-01 2.778e-03 6.521e-02) (0.000e+00 0.000e+00 0.000e+00)) ((-3.776e+01 7.378e+01 9.037e+00) (3.001e-02 2.740e-03 1.170e-01) (0.000e+00 0.000e+00 0.000e+00))
90         	((-1.828e+01 6.070e-01 -1.128e+02) (-2.605e-01 2.656e-03 6.542e-02) (0.000e+00 0.000e+00 0.000e+00)) ((-3.776e+01 7.382e+01 9.042e+00) (3.014e-02 2.682e-03 1.176e-01) (0.000e+00 0.000e+00 0.000e+00))
91         	((-1.830e+01 6.504e-01 -1.129e+02) (-2.614e-01 2.568e-03 6.565e-02) (0.000e+00 0.000e+00 0.000e+00)) ((-3.777e+01 7.388e+01 9.050e+00) (3.029e-02 2.614e-03 1.181e-01) (0.000e+00 0.000e+00 0.000e+00))
92         	((-1.832e+01 6.795e-01 -1.130e+02) (-2.624e-01 2.523e-03 6.593e-02) (0.000e+00 0.000e+00 0.000e+00)) ((-3.779e+01 7.395e+01 9.056e+00) (3.047e-02 2.535e-03 1.187e-01) (0.000e+00 0.000e+00 0.000e+00))
93         	((-1.834e+01 6.938e-01 -1.131e+02) (-2.634e-01 2.530e-03 6.630e-02) (0.000e+00 0.000e+00 0.000e+00)) ((-3.780e+01 7.401e+01 9.055e+00) (3.072e-02 2.435e-03 1.194e-01) (0.000e+00 0.000e+00 0.000e+00))
94         	((-1.834e+01 6.928e-01 -1.132e+02) (-2.646e-01 2.586e-03 6.677e-02) (0.000e+00 0.000e+00 0.000e+00)) ((-3.780e+01 7.405e+01 9.046e+00) (3.104e-02 2.306e-03 1.202e-01) (0.000e+00 0.000e+00 0.000e+00))
95         	((-1.833e+01 6.759e-01 -1.132e+02) (-2.660e-01 2.698e-03 6.739e-02) (0.000e+00 0.000e+00 0.000e+00)) ((-3.778e+01 7.406e+01 9.029e+00) (3.145e-02 2.144e-03 1.211e-01) (0.000e+00 0.000e+00 0.000e+00))
96         	((-1.832e+01 6.439e-01 -1.131e+02) (-2.675e-01 2.864e-03 6.814e-02) (0.000e+00 0.000e+00 0.000e+00)) ((-3.776e+01 7.406e+01 9.010e+00) (3.196e-02 1.947e-03 1.222e-01) (0.000e+00 0.000e+00 0.000e+00))
97         	((-1.831e+01 5.969e-01 -1.131e+02) (-2.691e-01 3.063e-03 6.899e-02) (0.000e+00 0.000e+00 0.000e+00)) ((-3.773e+01 7.404e+01 8.989e+00) (3.253e-02 1.725e-03 1.233e-01) (0.000e+00 0.000e+00 0.000e+00))
98         	((-1.830e+01 5.364e-01 -1.131e+02) (-2.709e-01 3.278e-03 6.990e-02) (0.000e+00 0.000e+00 0.000e+00)) ((-3.771e+01 7.402e+01 8.971e+00) (3.313e-02 1.493e-03 1.245e-01) (0.000e+00 0.000e+00 0.000e+00))
99         	((-1.831e+01 4.669e-01 -1.131e+02) (-2.728e-01 3.481e-03 7.084e-02) (0.000e+00 0.000e+00 0.000e+00)) ((-3.770e+01 7.402e+01 8.958e+00) (3.376e-02 1.260e-03 1.259e-01) (0.000e+00 0.000e+00 0.000e+00))
100        	((-1.834e+01 3.966e-01 -1.131e+02) (-2.747e-01 3.635e-03 7.172e-02) (0.000e+00 0.000e+00 0.000e+00)) ((-3.771e+01 7.403e+01 8.953e+00) (3.434e-02 1.056e-03 1.272e-01) (0.000e+00 0.000e+00 0.000e+00))
101        	((-1.838e+01 3.350e-01 -1.132e+02) (-2.766e-01 3.727e-03 7.249e-02) (0.000e+00 0.000e+00 0.000e+00)) ((-3.774e+01 7.407e+01 8.958e+00) (3.485e-02 8.916e-04 1.284e-01) (0.000e+00 0.000e+00 0.000e+00))
102        	((-1.844e+01 2.919e-01 -1.133e+02) (-2.783e-01 3.756e-03 7.314e-02) (0.000e+00 0.000e+00 0.000e+00)) ((-3.777e+01 7.413e+01 8.974e+00) (3.528e-02 7.651e-04 1.296e-01) (0.000e+00 0.000e+00 0.000e+00))
103        	((-1.850e+01 2.795e-01 -1.134e+02) (-2.800e-01 3.724e-03 7.367e-02) (0.000e+00 0.000e+00 0.000e+00)) ((-3.781e+01 7.420e+01 9.002e+00) (3.563e-02 6.756e-04 1.307e-01) (0.000e+00 0.000e+00 0.000e+00))
104        	((-1.855e+01 3.048e-01 -1.135e+02) (-2.815e-01 3.656e-03 7.411e-02) (0.000e+00 0.000e+00 0.000e+00)) ((-3.785e+01 7.426e+01 9.043e+00) (3.592e-02 6.111e-04 1.316e-01) (0.000e+00 0.000e+00 0.000e+00))
105        	((-1.861e+01 3.673e-01 -1.136e+02) (-2.828e-01 3.574e-03 7.450e-02) (0.000e+00 0.000e+00 0.000e+00)) ((-3.788e+01 7.430e+01 9.094e+00) (3.617e-02 5.598e-04 1.325e-01) (0.000e+00 0.000e+00 0.000e+00))
106        	((-1.864e+01 4.590e-01 -1.137e+02) (-2.841e-01 3.503e-03 7.487e-02) (0.000e+00 0.000e+00 0.000e+00)) ((-3.789e+01 7.433e+01 9.149e+00) (3.641e-02 5.111e-04 1.333e-01) (0.000e+00 0.000e+00 0.000e+00))
107        	((-1.867e+01 5.667e-01 -1.137e+02) (-2.854e-01 3.453e-03 7.527e-02) (0.000e+00 0.000e+00 0.000e+00)) ((-3.789e+01 7.432e+01 9.201e+00) (3.667e-02 4.578e-04 1.342e-01) (0.000e+00 0.000e+00 0.000e+00))
108        	((-1.867e+01 6.732e-01 -1.136e+02) (-2.867e-01 3.433e-03 7.571e-02) (0.000e+00 0.000e+00 0.000e+00)) ((-3.787e+01 7.429e+01 9.243e+00) (3.696e-02 3.927e-04 1.350e-01) (0.000e+00 0.000e+00 0.000e+00))
109        	((-1.866e+01 7.639e-01 -1.135e+02) (-2.880e-01 3.438e-03 7.621e-02) (0.000e+00 0.000e+00 0.000e+00)) ((-3.783e+01 7.424e+01 9.271e+00) (3.727e-02 3.142e-04 1.359e-01) (0.000e+00 0.000e+00 0.000e+00))
110        	((-1.864e+01 8.270e-01 -1.134e+02) (-2.894e-01 3.453e-03 7.675e-02) (0.000e+00 0.000e+00 0.000e+00)) ((-3.778e+01 7.418e+01 9.283e+00) (3.761e-02 2.292e-04 1.368e-01) (0.000e+00 0.000e+00 0.000e+00))
111        	((-1.862e+01 8.576e-01 -1.133e+02) (-2.909e-01 3.473e-03 7.730e-02) (0.000e+00 0.000e+00 0.000e+00)) ((-3.774e+01 7.412e+01 9.281e+00) (3.794e-02 1.436e-04 1.377e-01) (0.000e+00 0.000e+00 0.000e+00))
112        	((-1.859e+01 8.563e-01 -1.132e+02) (-2.924e-01 3.494e-03 7.781e-02) (0.000e+00 0.000e+00 0.000e+00)) ((-3.771e+01 7.406e+01 9.266e+00) (3.825e-02 6.880e-05 1.387e-01) (0.000e+00 0.000e+00 0.000e+00))
113        	((-1.857e+01 8.257e-01 -1.131e+02) (-2.938e-01 3.516e-03 7.829e-02) (0.000e+00 0.000e+00 0.000e+00)) ((-3.768e+01 7.402e+01 9.242e+00) (3.852e-02 6.846e-06 1.396e-01) (0.000e+00 0.000e+00 0.000e+00))
114        	((-1.854e+01 7.795e-01 -1.131e+02) (-2.952e-01 3.539e-03 7.869e-02) (0.000e+00 0.000e+00 0.000e+00)) ((-3.765e+01 7.398e+01 9.211e+00) (3.874e-02 -4.021e-05 1.405e-01) (0.000e+00 0.000e+00 0.000e+00))
115        	((-1.852e+01 7.237e-01 -1.130e+02) (-2.964e-01 3.563e-03 7.902e-02) (0.000e+00 0.000e+00 0.000e+00)) ((-3.763e+01 7.396e+01 9.174e+00) (3.892e-02 -7.252e-05 1.413e-01) (0.000e+00 0.000e+00 0.000e+00))
116        	((-1.849e+01 6.693e-01 -1.130e+02) (-2.975e-01 3.590e-03 7.927e-02) (0.000e+00 0.000e+00 0.000e+00)) ((-3.761e+01 7.394e+01 9.137e+00) (3.905e-02 -8.884e-05 1.420e-01) (0.000e+00 0.000e+00 0.000e+00))
117        	((-1.845e+01 6.238e-01 -1.129e+02) (-2.985e-01 3.621e-03 7.946e-02) (0.000e+00 0.000e+00 0.000e+00)) ((-3.759e+01 7.392e+01 9.101e+00) (3.915e-02 -9.002e-05 1.426e-01) (0.000e+00 0.000e+00 0.000e+00))
118        	((-1.842e+01 5.935e-01 -1.129e+02) (-2.994e-01 3.662e-03 7.959e-02) (0.000e+00 0.000e+00 0.000e+00)) ((-3.758e+01 7.391e+01 9.071e+00) (3.921e-02 -8.046e-05 1.432e-01) (0.000e+00 0.000e+00 0.000e+00))
119        	((-1.840e+01 5.763e-01 -1.129e+02) (-3.002e-01 3.708e-03 7.969e-02) (0.000e+00 0.000e+00 0.000e+00)) ((-3.756e+01 7.391e+01 9.050e+00) (3.927e-02 -6.381e-05 1.438e-01) (0.000e+00 0.000e+00 0.000e+00))
120        	((-1.838e+01 5.696e-01 -1.129e+02) (-3.010e-01 3.764e-03 7.978e-02) (0.000e+00 0.000e+00 0.000e+00)) ((-3.756e+01 7.392e+01 9.036e+00) (3.932e-02 -4.161e-05 1.443e-01) (0.000e+00 0.000e+00 0.000e+00))
121        	((-1.838e+01 5.676e-01 -1.129e+02) (-3.018e-01 3.819e-03 7.987e-02) (0.000e+00 0.000e+00 0.000e+00)) ((-3.756e+01 7.395e+01 9.030e+00) (3.938e-02 -1.637e-05 1.448e-01) (0.000e+00 0.000e+00 0.000e+00))
122        	((-1.838e+01 5.660e-01 -1.130e+02) (-3.025e-01 3.872e-03 7.997e-02) (0.000e+00 0.000e+00 0.000e+00)) ((-3.757e+01 7.398e+01 9.029e+00) (3.945e-02 6.324e-06 1.453e-01) (0.000e+00 0.000e+00 0.000e+00))
123        	((-1.839e+01 5.607e-01 -1.130e+02) (-3.032e-01 3.912e-03 8.008e-02) (0.000e+00 0.000e+00 0.000e+00)) ((-3.759e+01 7.401e+01 9.031e+00) (3.954e-02 2.339e-05 1.457e-01) (0.000e+00 0.000e+00 0.000e+00))
124        	((-1.841e+01 5.498e-01 -1.131e+02) (-3.039e-01 3.942e-03 8.021e-02) (0.000e+00 0.000e+00 0.000e+00)) ((-3.761e+01 7.405e+01 9.035e+00) (3.963e-02 3.115e-05 1.461e-01) (0.000e+00 0.000e+00 0.000e+00))
125        	((-1.844e+01 5.356e-01 -1.132e+02) (-3.045e-01 3.953e-03 8.036e-02) (0.000e+00 0.000e+00 0.000e+00)) ((-3.763e+01 7.408e+01 9.041e+00) (3.973e-02 2.808e-05 1.465e-01) (0.000e+00 0.000e+00 0.000e+00))
126        	((-1.847e+01 5.206e-01 -1.132e+02) (-3.050e-01 3.949e-03 8.052e-02) (0.000e+00 0.000e+00 0.000e+00)) ((-3.765e+01 7.412e+01 9.049e+00) (3.985e-02 1.254e-05 1.469e-01) (0.000e+00 0.000e+00 0.000e+00))
127        	((-1.849e+01 5.092e-01 -1.133e+02) (-3.056e-01 3.923e-03 8.070e-02) (0.000e+00 0.000e+00 0.000e+00)) ((-3.767e+01 7.414e+01 9.059e+00) (3.996e-02 -1.196e-05 1.472e-01) (0.000e+00 0.000e+00 0.000e+00))
128        	((-1.852e+01 5.039e-01 -1.133e+02) (-3.061e-01 3.885e-03 8.088e-02) (0.000e+00 0.000e+00 0.000e+00)) ((-3.768e+01 7.416e+01 9.070e+00) (4.008e-02 -4.530e-05 1.475e-01) (0.000e+00 0.000e+00 0.000e+00))
129        	((-1.854e+01 5.089e-01 -1.134e+02) (-3.065e-01 3.823e-03 8.107e-02) (0.000e+00 0.000e+00 0.000e+00)) ((-3.769e+01 7.417e+01 9.083e+00) (4.020e-02 -8.654e-05 1.478e-01) (0.000e+00 0.000e+00 0.000e+00))
130        	((-1.855e+01 5.256e-01 -1.134e+02) (-3.070e-01 3.755e-03 8.125e-02) (0.000e+00 0.000e+00 0.000e+00)) ((-3.769e+01 7.417e+01 9.096e+00) (4.032e-02 -1.327e-04 1.480e-01) (0.000e+00 0.000e+00 0.000e+00))
131        	((-1.855e+01 5.548e-01 -1.133e+02) (-3.074e-01 3.665e-03 8.143e-02) (0.000e+00 0.000e+00 0.000e+00)) ((-3.768e+01 7.416e+01 9.109e+00) (4.042e-02 -1.788e-04 1.482e-01) (0.000e+00 0.000e+00 0.000e+00))
132        	((-1.854e+01 5.929e-01 -1.133e+02) (-3.077e-01 3.569e-03 8.158e-02) (0.000e+00 0.000e+00 0.000e+00)) ((-3.767e+01 7.414e+01 9.118e+00) (4.050e-02 -2.214e-04 1.484e-01) (0.000e+00 0.000e+00 0.000e+00))
133        	((-1.851e+01 6.357e-01 -1.133e+02) (-3.080e-01 3.469e-03 8.171e-02) (0.000e+00 0.000e+00 0.000e+00)) ((-3.765e+01 7.411e+01 9.123e+00) (4.056e-02 -2.574e-04 1.485e-01) (0.000e+00 0.000e+00 0.000e+00))
134        	((-1.848e+01 6.789e-01 -1.132e+02) (-3.083e-01 3.364e-03 8.179e-02) (0.000e+00 0.000e+00 0.000e+00)) ((-3.763e+01 7.408e+01 9.122e+00) (4.060e-02 -2.850e-04 1.486e-01) (0.000e+00 0.000e+00 0.000e+00))
135        	((-1.844e+01 7.186e-01 -1.132e+02) (-3.085e-01 3.263e-03 8.185e-02) (0.000e+00 0.000e+00 0.000e+00)) ((-3.760e+01 7.405e+01 9.115e+00) (4.062e-02 -3.023e-04 1.487e-01) (0.000e+00 0.000e+00 0.000e+00))
136        	((-1.840e+01 7.519e-01 -1.131e+02) (-3.087e-01 3.169e-03 8.186e-02) (0.000e+00 0.000e+00 0.000e+00)) ((-3.757e+01 7.402e+01 9.101e+00) (4.061e-02 -3.100e-04 1.488e-01) (0.000e+00 0.000e+00 0.000e+00))
137        	((-1.835e+01 7.768e-01 -1.130e+02) (-3.089e-01 3.092e-03 8.186e-02) (0.000e+00 0.000e+00 0.000e+00)) ((-3.754e+01 7.399e+01 9.083e+00) (4.059e-02 -3.117e-04 1.488e-01) (0.000e+00 0.000e+00 0.000e+00))
138        	((-1.830e+01 7.929e-01 -1.130e+02) (-3.090e-01 3.034e-03 8.184e-02) (0.000e+00 0.000e+00 0.000e+00)) ((-3.751e+01 7.396e+01 9.060e+00) (4.057e-02 -3.096e-04 1.489e-01) (0.000e+00 0.000e+00 0.000e+00))
139        	((-1.824e+01 7.995e-01 -1.129e+02) (-3.092e-01 3.001e-03 8.183e-02) (0.000e+00 0.000e+00 0.000e+00)) ((-3.749e+01 7.393e+01 9.035e+00) (4.055e-02 -3.070e-04 1.489e-01) (0.000e+00 0.000e+00 0.000e+00))
140        	((-1.820e+01 7.974e-01 -1.128e+02) (-3.093e-01 2.998e-03 8.183e-02) (0.000e+00 0.000e+00 0.000e+00)) ((-3.746e+01 7.390e+01 9.010e+00) (4.054e-02 -3.098e-04 1.490e-01) (0.000e+00 0.000e+00 0.000e+00))