# Forces   
# CofR     : (0.000e+00 0.000e+00 0.000e+00)
# Time     forces(pressure viscous porous)	moments(pressure viscous porous)
1          	((-3.639e+01 -2.566e-01 -3.665e+02) (-1.506e-01 -6.502e-03 6.605e-03) (0.000e+00 0.000e+00 0.000e+00)) ((-9.600e+01 -4.219e+02 9.463e+00) (1.226e-03 3.094e-02 5.709e-02) (0.000e+00 0.000e+00 0.000e+00))
2          	((-1.619e+01 -3.674e-01 -2.026e+02) (-1.516e-01 -7.270e-03 9.541e-03) (0.000e+00 0.000e+00 0.000e+00)) ((-5.440e+01 -2.129e+02 5.007e+00) (1.940e-03 3.536e-02 5.812e-02) (0.000e+00 0.000e+00 0.000e+00))
3          	((-9.666e+00 -3.146e-01 -1.357e+02) (-1.509e-01 -7.762e-03 9.901e-03) (0.000e+00 0.000e+00 0.000e+00)) ((-3.697e+01 -1.365e+02 3.389e+00) (2.061e-03 3.658e-02 5.839e-02) (0.000e+00 0.000e+00 0.000e+00))
4          	((-5.927e+00 -2.774e-01 -9.862e+01) (-1.516e-01 -8.115e-03 9.987e-03) (0.000e+00 0.000e+00 0.000e+00)) ((-2.716e+01 -9.465e+01 2.440e+00) (2.054e-03 3.688e-02 5.894e-02) (0.000e+00 0.000e+00 0.000e+00))
5          	((-4.954e+00 -2.408e-01 -8.843e+01) (-1.527e-01 -8.493e-03 1.016e-02) (0.000e+00 0.000e+00 0.000e+00)) ((-2.442e+01 -8.393e+01 2.138e+00) (2.048e-03 3.717e-02 5.960e-02) (0.000e+00 0.000e+00 0.000e+00))
6          	((-4.524e+00 -2.231e-01 -8.340e+01) (-1.538e-01 -8.869e-03 1.034e-02) (0.000e+00 0.000e+00 0.000e+00)) ((-2.309e+01 -7.904e+01 1.990e+00) (2.037e-03 3.747e-02 6.025e-02) (0.000e+00 0.000e+00 0.000e+00))
7          	((-4.481e+00 -2.272e-01 -8.471e+01) (-1.549e-01 -9.326e-03 1.047e-02) (0.000e+00 0.000e+00 0.000e+00)) ((-2.343e+01 -8.038e+01 1.961e+00) (1.994e-03 3.773e-02 6.096e-02) (0.000e+00 0.000e+00 0.000e+00))
8          	((-4.476e+00 -2.621e-01 -8.655e+01) (-1.559e-01 -9.810e-03 1.054e-02) (0.000e+00 0.000e+00 0.000e+00)) ((-2.389e+01 -8.198e+01 1.987e+00) (1.922e-03 3.793e-02 6.163e-02) (0.000e+00 0.000e+00 0.000e+00))
9          	((-4.486e+00 -3.006e-01 -9.019e+01) (-1.568e-01 -1.037e-02 1.060e-02) (0.000e+00 0.000e+00 0.000e+00)) ((-2.478e+01 -8.489e+01 2.020e+00) (1.841e-03 3.813e-02 6.234e-02) (0.000e+00 0.000e+00 0.000e+00))
10         	((-4.426e+00 -3.648e-01 -9.063e+01) (-1.576e-01 -1.098e-02 1.066e-02) (0.000e+00 0.000e+00 0.000e+00)) ((-2.487e+01 -8.490e+01 2.066e+00) (1.754e-03 3.832e-02 6.305e-02) (0.000e+00 0.000e+00 0.000e+00))
11         	((-4.347e+00 -4.293e-01 -9.132e+01) (-1.583e-01 -1.160e-02 1.072e-02) (0.000e+00 0.000e+00 0.000e+00)) ((-2.505e+01 -8.497e+01 2.101e+00) (1.662e-03 3.849e-02 6.376e-02) (0.000e+00 0.000e+00 0.000e+00))
12         	((-4.258e+00 -4.973e-01 -9.219e+01) (-1.589e-01 -1.221e-02 1.076e-02) (0.000e+00 0.000e+00 0.000e+00)) ((-2.532e+01 -8.514e+01 2.136e+00) (1.564e-03 3.864e-02 6.443e-02) (0.000e+00 0.000e+00 0.000e+00))
13         	((-4.164e+00 -5.718e-01 -9.294e+01) (-1.595e-01 -1.282e-02 1.080e-02) (0.000e+00 0.000e+00 0.000e+00)) ((-2.561e+01 -8.520e+01 2.179e+00) (1.463e-03 3.878e-02 6.508e-02) (0.000e+00 0.000e+00 0.000e+00))
14         	((-4.065e+00 -6.495e-01 -9.347e+01) (-1.599e-01 -1.340e-02 1.080e-02) (0.000e+00 0.000e+00 0.000e+00)) ((-2.588e+01 -8.507e+01 2.226e+00) (1.354e-03 3.888e-02 6.568e-02) (0.000e+00 0.000e+00 0.000e+00))
15         	((-3.963e+00 -7.298e-01 -9.364e+01) (-1.602e-01 -1.394e-02 1.085e-02) (0.000e+00 0.000e+00 0.000e+00)) ((-2.606e+01 -8.469e+01 2.279e+00) (1.273e-03 3.898e-02 6.621e-02) (0.000e+00 0.000e+00 0.000e+00))
16         	((-3.851e+00 -8.086e-01 -9.340e+01) (-1.605e-01 -1.445e-02 1.090e-02) (0.000e+00 0.000e+00 0.000e+00)) ((-2.613e+01 -8.399e+01 2.333e+00) (1.199e-03 3.905e-02 6.668e-02) (0.000e+00 0.000e+00 0.000e+00))
17         	((-3.744e+00 -8.844e-01 -9.287e+01) (-1.607e-01 -1.495e-02 1.094e-02) (0.000e+00 0.000e+00 0.000e+00)) ((-2.613e+01 -8.309e+01 2.390e+00) (1.130e-03 3.911e-02 6.711e-02) (0.000e+00 0.000e+00 0.000e+00))
18         	((-3.654e+00 -9.557e-01 -9.228e+01) (-1.608e-01 -1.540e-02 1.101e-02) (0.000e+00 0.000e+00 0.000e+00)) ((-2.611e+01 -8.222e+01 2.449e+00) (1.074e-03 3.917e-02 6.745e-02) (0.000e+00 0.000e+00 0.000e+00))
19         	((-3.591e+00 -1.023e+00 -9.187e+01) (-1.609e-01 -1.583e-02 1.107e-02) (0.000e+00 0.000e+00 0.000e+00)) ((-2.614e+01 -8.160e+01 2.513e+00) (1.019e-03 3.923e-02 6.776e-02) (0.000e+00 0.000e+00 0.000e+00))
20         	((-3.567e+00 -1.080e+00 -9.187e+01) (-1.610e-01 -1.626e-02 1.115e-02) (0.000e+00 0.000e+00 0.000e+00)) ((-2.625e+01 -8.148e+01 2.575e+00) (9.651e-04 3.930e-02 6.805e-02) (0.000e+00 0.000e+00 0.000e+00))
21         	((-3.537e+00 -1.142e+00 -9.211e+01) (-1.610e-01 -1.669e-02 1.123e-02) (0.000e+00 0.000e+00 0.000e+00)) ((-2.651e+01 -8.149e+01 2.642e+00) (9.148e-04 3.936e-02 6.833e-02) (0.000e+00 0.000e+00 0.000e+00))
22         	((-3.541e+00 -1.190e+00 -9.227e+01) (-1.611e-01 -1.714e-02 1.131e-02) (0.000e+00 0.000e+00 0.000e+00)) ((-2.665e+01 -8.163e+01 2.701e+00) (8.642e-04 3.942e-02 6.863e-02) (0.000e+00 0.000e+00 0.000e+00))
23         	((-3.550e+00 -1.245e+00 -9.258e+01) (-1.611e-01 -1.759e-02 1.139e-02) (0.000e+00 0.000e+00 0.000e+00)) ((-2.690e+01 -8.189e+01 2.772e+00) (8.139e-04 3.950e-02 6.894e-02) (0.000e+00 0.000e+00 0.000e+00))
24         	((-3.551e+00 -1.287e+00 -9.253e+01) (-1.612e-01 -1.804e-02 1.148e-02) (0.000e+00 0.000e+00 0.000e+00)) ((-2.697e+01 -8.190e+01 2.824e+00) (7.635e-04 3.958e-02 6.926e-02) (0.000e+00 0.000e+00 0.000e+00))
25         	((-3.554e+00 -1.342e+00 -9.191e+01) (-1.613e-01 -1.851e-02 1.157e-02) (0.000e+00 0.000e+00 0.000e+00)) ((-2.696e+01 -8.148e+01 2.889e+00) (7.135e-04 3.966e-02 6.960e-02) (0.000e+00 0.000e+00 0.000e+00))
26         	((-3.550e+00 -1.382e+00 -9.144e+01) (-1.614e-01 -1.895e-02 1.165e-02) (0.000e+00 0.000e+00 0.000e+00)) ((-2.691e+01 -8.115e+01 2.936e+00) (6.605e-04 3.976e-02 6.994e-02) (0.000e+00 0.000e+00 0.000e+00))
27         	((-3.556e+00 -1.435e+00 -9.029e+01) (-1.615e-01 -1.933e-02 1.175e-02) (0.000e+00 0.000e+00 0.000e+00)) ((-2.676e+01 -8.032e+01 2.995e+00) (6.260e-04 3.985e-02 7.024e-02) (0.000e+00 0.000e+00 0.000e+00))
28         	((-3.558e+00 -1.471e+00 -8.980e+01) (-1.616e-01 -1.970e-02 1.184e-02) (0.000e+00 0.000e+00 0.000e+00)) ((-2.672e+01 -7.998e+01 3.038e+00) (5.892e-04 3.996e-02 7.055e-02) (0.000e+00 0.000e+00 0.000e+00))
29         	((-3.560e+00 -1.519e+00 -8.864e+01) (-1.618e-01 -1.999e-02 1.192e-02) (0.000e+00 0.000e+00 0.000e+00)) ((-2.657e+01 -7.910e+01 3.090e+00) (5.666e-04 4.007e-02 7.083e-02) (0.000e+00 0.000e+00 0.000e+00))
30         	((-3.549e+00 -1.549e+00 -8.816e+01) (-1.620e-01 -2.022e-02 1.197e-02) (0.000e+00 0.000e+00 0.000e+00)) ((-2.652e+01 -7.872e+01 3.123e+00) (5.365e-04 4.019e-02 7.109e-02) (0.000e+00 0.000e+00 0.000e+00))
31         	((-3.522e+00 -1.591e+00 -8.723e+01) (-1.622e-01 -2.033e-02 1.203e-02) (0.000e+00 0.000e+00 0.000e+00)) ((-2.643e+01 -7.790e+01 3.163e+00) (5.270e-04 4.030e-02 7.127e-02) (0.000e+00 0.000e+00 0.000e+00))
32         	((-3.492e+00 -1.623e+00 -8.700e+01) (-1.623e-01 -2.036e-02 1.210e-02) (0.000e+00 0.000e+00 0.000e+00)) ((-2.648e+01 -7.758e+01 3.190e+00) (5.447e-04 4.040e-02 7.138e-02) (0.000e+00 0.000e+00 0.000e+00))
33         	((-3.433e+00 -1.672e+00 -8.679e+01) (-1.622e-01 -2.031e-02 1.218e-02) (0.000e+00 0.000e+00 0.000e+00)) ((-2.665e+01 -7.711e+01 3.226e+00) (5.830e-04 4.049e-02 7.139e-02) (0.000e+00 0.000e+00 0.000e+00))
34         	((-3.395e+00 -1.714e+00 -8.681e+01) (-1.622e-01 -2.023e-02 1.223e-02) (0.000e+00 0.000e+00 0.000e+00)) ((-2.677e+01 -7.696e+01 3.262e+00) (6.126e-04 4.055e-02 7.138e-02) (0.000e+00 0.000e+00 0.000e+00))
35         	((-3.336e+00 -1.768e+00 -8.679e+01) (-1.622e-01 -2.019e-02 1.220e-02) (0.000e+00 0.000e+00 0.000e+00)) ((-2.697e+01 -7.665e+01 3.306e+00) (6.009e-04 4.058e-02 7.139e-02) (0.000e+00 0.000e+00 0.000e+00))
36         	((-3.322e+00 -1.813e+00 -8.686e+01) (-1.621e-01 -2.015e-02 1.218e-02) (0.000e+00 0.000e+00 0.000e+00)) ((-2.707e+01 -7.667e+01 3.350e+00) (5.872e-04 4.059e-02 7.139e-02) (0.000e+00 0.000e+00 0.000e+00))
37         	((-3.293e+00 -1.866e+00 -8.671e+01) (-1.622e-01 -2.011e-02 1.217e-02) (0.000e+00 0.000e+00 0.000e+00)) ((-2.716e+01 -7.645e+01 3.395e+00) (5.805e-04 4.060e-02 7.141e-02) (0.000e+00 0.000e+00 0.000e+00))
38         	((-3.286e+00 -1.910e+00 -8.651e+01) (-1.622e-01 -2.008e-02 1.215e-02) (0.000e+00 0.000e+00 0.000e+00)) ((-2.716e+01 -7.633e+01 3.436e+00) (5.728e-04 4.060e-02 7.144e-02) (0.000e+00 0.000e+00 0.000e+00))
39         	((-3.258e+00 -1.961e+00 -8.579e+01) (-1.622e-01 -2.004e-02 1.213e-02) (0.000e+00 0.000e+00 0.000e+00)) ((-2.703e+01 -7.577e+01 3.473e+00) (5.628e-04 4.059e-02 7.144e-02) (0.000e+00 0.000e+00 0.000e+00))
40         	((-3.255e+00 -2.005e+00 -8.529e+01) (-1.622e-01 -2.000e-02 1.213e-02) (0.000e+00 0.000e+00 0.000e+00)) ((-2.690e+01 -7.546e+01 3.511e+00) (5.679e-04 4.060e-02 7.146e-02) (0.000e+00 0.000e+00 0.000e+00))
41         	((-3.244e+00 -2.054e+00 -8.418e+01) (-1.622e-01 -1.991e-02 1.214e-02) (0.000e+00 0.000e+00 0.000e+00)) ((-2.661e+01 -7.472e+01 3.548e+00) (5.735e-04 4.062e-02 7.146e-02) (0.000e+00 0.000e+00 0.000e+00))
42         	((-3.252e+00 -2.092e+00 -8.370e+01) (-1.623e-01 -1.982e-02 1.214e-02) (0.000e+00 0.000e+00 0.000e+00)) ((-2.647e+01 -7.446e+01 3.585e+00) (5.865e-04 4.065e-02 7.151e-02) (0.000e+00 0.000e+00 0.000e+00))
43         	((-3.259e+00 -2.131e+00 -8.302e+01) (-1.625e-01 -1.967e-02 1.215e-02) (0.000e+00 0.000e+00 0.000e+00)) ((-2.629e+01 -7.409e+01 3.620e+00) (6.054e-04 4.070e-02 7.153e-02) (0.000e+00 0.000e+00 0.000e+00))
44         	((-3.263e+00 -2.161e+00 -8.232e+01) (-1.627e-01 -1.949e-02 1.216e-02) (0.000e+00 0.000e+00 0.000e+00)) ((-2.610e+01 -7.370e+01 3.646e+00) (6.294e-04 4.076e-02 7.158e-02) (0.000e+00 0.000e+00 0.000e+00))
45         	((-3.271e+00 -2.183e+00 -8.167e+01) (-1.630e-01 -1.927e-02 1.216e-02) (0.000e+00 0.000e+00 0.000e+00)) ((-2.593e+01 -7.337e+01 3.666e+00) (6.569e-04 4.083e-02 7.162e-02) (0.000e+00 0.000e+00 0.000e+00))
46         	((-3.286e+00 -2.198e+00 -8.114e+01) (-1.633e-01 -1.900e-02 1.218e-02) (0.000e+00 0.000e+00 0.000e+00)) ((-2.578e+01 -7.316e+01 3.681e+00) (7.011e-04 4.092e-02 7.163e-02) (0.000e+00 0.000e+00 0.000e+00))
47         	((-3.312e+00 -2.207e+00 -8.081e+01) (-1.637e-01 -1.870e-02 1.220e-02) (0.000e+00 0.000e+00 0.000e+00)) ((-2.569e+01 -7.312e+01 3.696e+00) (7.531e-04 4.103e-02 7.166e-02) (0.000e+00 0.000e+00 0.000e+00))
48         	((-3.344e+00 -2.215e+00 -8.077e+01) (-1.641e-01 -1.837e-02 1.222e-02) (0.000e+00 0.000e+00 0.000e+00)) ((-2.569e+01 -7.330e+01 3.711e+00) (8.096e-04 4.113e-02 7.167e-02) (0.000e+00 0.000e+00 0.000e+00))
49         	((-3.372e+00 -2.222e+00 -8.104e+01) (-1.645e-01 -1.802e-02 1.223e-02) (0.000e+00 0.000e+00 0.000e+00)) ((-2.579e+01 -7.363e+01 3.725e+00) (8.711e-04 4.124e-02 7.167e-02) (0.000e+00 0.000e+00 0.000e+00))
50         	((-3.387e+00 -2.232e+00 -8.152e+01) (-1.649e-01 -1.766e-02 1.224e-02) (0.000e+00 0.000e+00 0.000e+00)) ((-2.596e+01 -7.404e+01 3.738e+00) (9.339e-04 4.136e-02 7.168e-02) (0.000e+00 0.000e+00 0.000e+00))
51         	((-3.387e+00 -2.243e+00 -8.211e+01) (-1.654e-01 -1.730e-02 1.226e-02) (0.000e+00 0.000e+00 0.000e+00)) ((-2.618e+01 -7.446e+01 3.749e+00) (9.996e-04 4.150e-02 7.167e-02) (0.000e+00 0.000e+00 0.000e+00))
52         	((-3.382e+00 -2.254e+00 -8.274e+01) (-1.658e-01 -1.695e-02 1.227e-02) (0.000e+00 0.000e+00 0.000e+00)) ((-2.640e+01 -7.491e+01 3.760e+00) (1.059e-03 4.163e-02 7.166e-02) (0.000e+00 0.000e+00 0.000e+00))
53         	((-3.383e+00 -2.263e+00 -8.343e+01) (-1.662e-01 -1.659e-02 1.227e-02) (0.000e+00 0.000e+00 0.000e+00)) ((-2.663e+01 -7.542e+01 3.773e+00) (1.116e-03 4.175e-02 7.165e-02) (0.000e+00 0.000e+00 0.000e+00))
54         	((-3.399e+00 -2.271e+00 -8.417e+01) (-1.666e-01 -1.627e-02 1.228e-02) (0.000e+00 0.000e+00 0.000e+00)) ((-2.685e+01 -7.603e+01 3.793e+00) (1.169e-03 4.189e-02 7.164e-02) (0.000e+00 0.000e+00 0.000e+00))
55         	((-3.431e+00 -2.278e+00 -8.491e+01) (-1.671e-01 -1.596e-02 1.230e-02) (0.000e+00 0.000e+00 0.000e+00)) ((-2.704e+01 -7.671e+01 3.821e+00) (1.227e-03 4.203e-02 7.166e-02) (0.000e+00 0.000e+00 0.000e+00))
56         	((-3.476e+00 -2.285e+00 -8.560e+01) (-1.677e-01 -1.569e-02 1.231e-02) (0.000e+00 0.000e+00 0.000e+00)) ((-2.721e+01 -7.741e+01 3.855e+00) (1.273e-03 4.217e-02 7.171e-02) (0.000e+00 0.000e+00 0.000e+00))
57         	((-3.524e+00 -2.291e+00 -8.619e+01) (-1.683e-01 -1.543e-02 1.232e-02) (0.000e+00 0.000e+00 0.000e+00)) ((-2.733e+01 -7.804e+01 3.890e+00) (1.325e-03 4.232e-02 7.178e-02) (0.000e+00 0.000e+00 0.000e+00))
58         	((-3.567e+00 -2.297e+00 -8.669e+01) (-1.689e-01 -1.522e-02 1.234e-02) (0.000e+00 0.000e+00 0.000e+00)) ((-2.741e+01 -7.859e+01 3.924e+00) (1.367e-03 4.248e-02 7.191e-02) (0.000e+00 0.000e+00 0.000e+00))
59         	((-3.621e+00 -2.300e+00 -8.720e+01) (-1.696e-01 -1.506e-02 1.235e-02) (0.000e+00 0.000e+00 0.000e+00)) ((-2.748e+01 -7.921e+01 3.958e+00) (1.403e-03 4.263e-02 7.208e-02) (0.000e+00 0.000e+00 0.000e+00))
60         	((-3.629e+00 -2.306e+00 -8.735e+01) (-1.704e-01 -1.491e-02 1.238e-02) (0.000e+00 0.000e+00 0.000e+00)) ((-2.749e+01 -7.937e+01 3.978e+00) (1.440e-03 4.280e-02 7.230e-02) (0.000e+00 0.000e+00 0.000e+00))
61         	((-3.643e+00 -2.306e+00 -8.756e+01) (-1.712e-01 -1.477e-02 1.237e-02) (0.000e+00 0.000e+00 0.000e+00)) ((-2.751e+01 -7.960e+01 3.996e+00) (1.459e-03 4.295e-02 7.254e-02) (0.000e+00 0.000e+00 0.000e+00))
62         	((-3.639e+00 -2.309e+00 -8.772e+01) (-1.720e-01 -1.463e-02 1.236e-02) (0.000e+00 0.000e+00 0.000e+00)) ((-2.754e+01 -7.970e+01 4.006e+00) (1.479e-03 4.311e-02 7.278e-02) (0.000e+00 0.000e+00 0.000e+00))
63         	((-3.641e+00 -2.305e+00 -8.826e+01) (-1.729e-01 -1.449e-02 1.231e-02) (0.000e+00 0.000e+00 0.000e+00)) ((-2.767e+01 -8.010e+01 4.013e+00) (1.485e-03 4.325e-02 7.305e-02) (0.000e+00 0.000e+00 0.000e+00))
64         	((-3.633e+00 -2.306e+00 -8.862e+01) (-1.739e-01 -1.434e-02 1.227e-02) (0.000e+00 0.000e+00 0.000e+00)) ((-2.776e+01 -8.033e+01 4.014e+00) (1.494e-03 4.341e-02 7.335e-02) (0.000e+00 0.000e+00 0.000e+00))
65         	((-3.629e+00 -2.302e+00 -8.929e+01) (-1.750e-01 -1.419e-02 1.225e-02) (0.000e+00 0.000e+00 0.000e+00)) ((-2.791e+01 -8.080e+01 4.011e+00) (1.511e-03 4.358e-02 7.367e-02) (0.000e+00 0.000e+00 0.000e+00))
66         	((-3.639e+00 -2.299e+00 -9.022e+01) (-1.760e-01 -1.403e-02 1.220e-02) (0.000e+00 0.000e+00 0.000e+00)) ((-2.811e+01 -8.152e+01 4.011e+00) (1.524e-03 4.374e-02 7.400e-02) (0.000e+00 0.000e+00 0.000e+00))
67         	((-3.663e+00 -2.300e+00 -9.128e+01) (-1.771e-01 -1.386e-02 1.215e-02) (0.000e+00 0.000e+00 0.000e+00)) ((-2.832e+01 -8.237e+01 4.018e+00) (1.538e-03 4.391e-02 7.435e-02) (0.000e+00 0.000e+00 0.000e+00))
68         	((-3.698e+00 -2.305e+00 -9.230e+01) (-1.782e-01 -1.367e-02 1.210e-02) (0.000e+00 0.000e+00 0.000e+00)) ((-2.853e+01 -8.322e+01 4.033e+00) (1.559e-03 4.407e-02 7.468e-02) (0.000e+00 0.000e+00 0.000e+00))
69         	((-3.739e+00 -2.312e+00 -9.310e+01) (-1.792e-01 -1.344e-02 1.202e-02) (0.000e+00 0.000e+00 0.000e+00)) ((-2.867e+01 -8.392e+01 4.054e+00) (1.576e-03 4.422e-02 7.498e-02) (0.000e+00 0.000e+00 0.000e+00))
70         	((-3.781e+00 -2.319e+00 -9.362e+01) (-1.803e-01 -1.317e-02 1.195e-02) (0.000e+00 0.000e+00 0.000e+00)) ((-2.876e+01 -8.440e+01 4.077e+00) (1.596e-03 4.437e-02 7.526e-02) (0.000e+00 0.000e+00 0.000e+00))
71         	((-3.822e+00 -2.324e+00 -9.391e+01) (-1.813e-01 -1.285e-02 1.186e-02) (0.000e+00 0.000e+00 0.000e+00)) ((-2.878e+01 -8.469e+01 4.100e+00) (1.616e-03 4.453e-02 7.550e-02) (0.000e+00 0.000e+00 0.000e+00))
72         	((-3.862e+00 -2.325e+00 -9.408e+01) (-1.823e-01 -1.249e-02 1.180e-02) (0.000e+00 0.000e+00 0.000e+00)) ((-2.879e+01 -8.491e+01 4.120e+00) (1.656e-03 4.472e-02 7.570e-02) (0.000e+00 0.000e+00 0.000e+00))
73         	((-3.907e+00 -2.321e+00 -9.429e+01) (-1.833e-01 -1.210e-02 1.177e-02) (0.000e+00 0.000e+00 0.000e+00)) ((-2.881e+01 -8.519e+01 4.140e+00) (1.712e-03 4.492e-02 7.587e-02) (0.000e+00 0.000e+00 0.000e+00))
74         	((-3.959e+00 -2.315e+00 -9.464e+01) (-1.843e-01 -1.171e-02 1.172e-02) (0.000e+00 0.000e+00 0.000e+00)) ((-2.889e+01 -8.563e+01 4.158e+00) (1.760e-03 4.513e-02 7.606e-02) (0.000e+00 0.000e+00 0.000e+00))
75         	((-4.016e+00 -2.306e+00 -9.522e+01) (-1.855e-01 -1.137e-02 1.166e-02) (0.000e+00 0.000e+00 0.000e+00)) ((-2.903e+01 -8.629e+01 4.175e+00) (1.796e-03 4.531e-02 7.628e-02) (0.000e+00 0.000e+00 0.000e+00))
76         	((-4.076e+00 -2.297e+00 -9.609e+01) (-1.867e-01 -1.111e-02 1.162e-02) (0.000e+00 0.000e+00 0.000e+00)) ((-2.927e+01 -8.721e+01 4.189e+00) (1.829e-03 4.550e-02 7.656e-02) (0.000e+00 0.000e+00 0.000e+00))
77         	((-4.132e+00 -2.288e+00 -9.725e+01) (-1.880e-01 -1.098e-02 1.158e-02) (0.000e+00 0.000e+00 0.000e+00)) ((-2.960e+01 -8.833e+01 4.201e+00) (1.845e-03 4.572e-02 7.693e-02) (0.000e+00 0.000e+00 0.000e+00))
78         	((-4.186e+00 -2.278e+00 -9.861e+01) (-1.894e-01 -1.097e-02 1.153e-02) (0.000e+00 0.000e+00 0.000e+00)) ((-3.001e+01 -8.961e+01 4.211e+00) (1.838e-03 4.593e-02 7.741e-02) (0.000e+00 0.000e+00 0.000e+00))
79         	((-4.238e+00 -2.270e+00 -1.001e+02) (-1.910e-01 -1.108e-02 1.148e-02) (0.000e+00 0.000e+00 0.000e+00)) ((-3.046e+01 -9.092e+01 4.222e+00) (1.810e-03 4.617e-02 7.798e-02) (0.000e+00 0.000e+00 0.000e+00))
80         	((-4.289e+00 -2.261e+00 -1.015e+02) (-1.926e-01 -1.127e-02 1.144e-02) (0.000e+00 0.000e+00 0.000e+00)) ((-3.092e+01 -9.220e+01 4.232e+00) (1.766e-03 4.642e-02 7.860e-02) (0.000e+00 0.000e+00 0.000e+00))
81         	((-4.338e+00 -2.250e+00 -1.029e+02) (-1.942e-01 -1.146e-02 1.141e-02) (0.000e+00 0.000e+00 0.000e+00)) ((-3.139e+01 -9.341e+01 4.241e+00) (1.726e-03 4.671e-02 7.924e-02) (0.000e+00 0.000e+00 0.000e+00))
82         	((-4.383e+00 -2.240e+00 -1.041e+02) (-1.959e-01 -1.168e-02 1.134e-02) (0.000e+00 0.000e+00 0.000e+00)) ((-3.181e+01 -9.444e+01 4.250e+00) (1.662e-03 4.697e-02 7.988e-02) (0.000e+00 0.000e+00 0.000e+00))
83         	((-4.418e+00 -2.229e+00 -1.050e+02) (-1.976e-01 -1.191e-02 1.129e-02) (0.000e+00 0.000e+00 0.000e+00)) ((-3.213e+01 -9.519e+01 4.256e+00) (1.601e-03 4.726e-02 8.053e-02) (0.000e+00 0.000e+00 0.000e+00))
84         	((-4.442e+00 -2.216e+00 -1.054e+02) (-1.993e-01 -1.214e-02 1.122e-02) (0.000e+00 0.000e+00 0.000e+00)) ((-3.234e+01 -9.561e+01 4.256e+00) (1.537e-03 4.750e-02 8.117e-02) (0.000e+00 0.000e+00 0.000e+00))
85         	((-4.453e+00 -2.202e+00 -1.055e+02) (-2.010e-01 -1.239e-02 1.119e-02) (0.000e+00 0.000e+00 0.000e+00)) ((-3.243e+01 -9.573e+01 4.251e+00) (1.496e-03 4.778e-02 8.183e-02) (0.000e+00 0.000e+00 0.000e+00))
86         	((-4.453e+00 -2.186e+00 -1.053e+02) (-2.027e-01 -1.259e-02 1.114e-02) (0.000e+00 0.000e+00 0.000e+00)) ((-3.243e+01 -9.565e+01 4.239e+00) (1.457e-03 4.804e-02 8.246e-02) (0.000e+00 0.000e+00 0.000e+00))
87         	((-4.443e+00 -2.167e+00 -1.050e+02) (-2.045e-01 -1.278e-02 1.114e-02) (0.000e+00 0.000e+00 0.000e+00)) ((-3.238e+01 -9.545e+01 4.219e+00) (1.445e-03 4.837e-02 8.318e-02) (0.000e+00 0.000e+00 0.000e+00))
88         	((-4.431e+00 -2.146e+00 -1.048e+02) (-2.064e-01 -1.287e-02 1.105e-02) (0.000e+00 0.000e+00 0.000e+00)) ((-3.234e+01 -9.530e+01 4.194e+00) (1.395e-03 4.861e-02 8.382e-02) (0.000e+00 0.000e+00 0.000e+00))
89         	((-4.425e+00 -2.123e+00 -1.048e+02) (-2.083e-01 -1.295e-02 1.105e-02) (0.000e+00 0.000e+00 0.000e+00)) ((-3.238e+01 -9.534e+01 4.168e+00) (1.411e-03 4.901e-02 8.452e-02) (0.000e+00 0.000e+00 0.000e+00))
90         	((-4.430e+00 -2.102e+00 -1.052e+02) (-2.102e-01 -1.301e-02 1.089e-02) (0.000e+00 0.000e+00 0.000e+00)) ((-3.250e+01 -9.562e+01 4.144e+00) (1.319e-03 4.922e-02 8.523e-02) (0.000e+00 0.000e+00 0.000e+00))
91         	((-4.446e+00 -2.083e+00 -1.058e+02) (-2.122e-01 -1.299e-02 1.079e-02) (0.000e+00 0.000e+00 0.000e+00)) ((-3.270e+01 -9.617e+01 4.124e+00) (1.289e-03 4.957e-02 8.589e-02) (0.000e+00 0.000e+00 0.000e+00))
92         	((-4.471e+00 -2.070e+00 -1.067e+02) (-2.142e-01 -1.285e-02 1.063e-02) (0.000e+00 0.000e+00 0.000e+00)) ((-3.298e+01 -9.695e+01 4.109e+00) (1.238e-03 4.982e-02 8.651e-02) (0.000e+00 0.000e+00 0.000e+00))
93         	((-4.501e+00 -2.062e+00 -1.078e+02) (-2.162e-01 -1.269e-02 1.052e-02) (0.000e+00 0.000e+00 0.000e+00)) ((-3.331e+01 -9.790e+01 4.101e+00) (1.239e-03 5.016e-02 8.718e-02) (0.000e+00 0.000e+00 0.000e+00))
94         	((-4.529e+00 -2.060e+00 -1.089e+02) (-2.183e-01 -1.238e-02 1.039e-02) (0.000e+00 0.000e+00 0.000e+00)) ((-3.364e+01 -9.892e+01 4.097e+00) (1.235e-03 5.044e-02 8.776e-02) (0.000e+00 0.000e+00 0.000e+00))
95         	((-4.550e+00 -2.063e+00 -1.100e+02) (-2.205e-01 -1.203e-02 1.028e-02) (0.000e+00 0.000e+00 0.000e+00)) ((-3.396e+01 -9.991e+01 4.098e+00) (1.269e-03 5.082e-02 8.838e-02) (0.000e+00 0.000e+00 0.000e+00))
96         	((-4.561e+00 -2.071e+00 -1.110e+02) (-2.228e-01 -1.162e-02 1.015e-02) (0.000e+00 0.000e+00 0.000e+00)) ((-3.424e+01 -1.008e+02 4.101e+00) (1.284e-03 5.115e-02 8.900e-02) (0.000e+00 0.000e+00 0.000e+00))
97         	((-4.562e+00 -2.082e+00 -1.118e+02) (-2.252e-01 -1.115e-02 1.005e-02) (0.000e+00 0.000e+00 0.000e+00)) ((-3.447e+01 -1.015e+02 4.105e+00) (1.337e-03 5.152e-02 8.961e-02) (0.000e+00 0.000e+00 0.000e+00))
98         	((-4.556e+00 -2.097e+00 -1.124e+02) (-2.277e-01 -1.070e-02 9.982e-03) (0.000e+00 0.000e+00 0.000e+00)) ((-3.465e+01 -1.020e+02 4.112e+00) (1.401e-03 5.192e-02 9.023e-02) (0.000e+00 0.000e+00 0.000e+00))
99         	((-4.544e+00 -2.115e+00 -1.130e+02) (-2.305e-01 -1.028e-02 9.873e-03) (0.000e+00 0.000e+00 0.000e+00)) ((-3.482e+01 -1.025e+02 4.121e+00) (1.443e-03 5.235e-02 9.100e-02) (0.000e+00 0.000e+00 0.000e+00))
100        	((-4.529e+00 -2.134e+00 -1.135e+02) (-2.336e-01 -9.902e-03 9.774e-03) (0.000e+00 0.000e+00 0.000e+00)) ((-3.499e+01 -1.030e+02 4.130e+00) (1.476e-03 5.284e-02 9.189e-02) (0.000e+00 0.000e+00 0.000e+00))
101        	((-4.515e+00 -2.152e+00 -1.142e+02) (-2.369e-01 -9.617e-03 9.650e-03) (0.000e+00 0.000e+00 0.000e+00)) ((-3.519e+01 -1.036e+02 4.139e+00) (1.488e-03 5.333e-02 9.284e-02) (0.000e+00 0.000e+00 0.000e+00))
102        	((-4.502e+00 -2.167e+00 -1.149e+02) (-2.402e-01 -9.454e-03 9.563e-03) (0.000e+00 0.000e+00 0.000e+00)) ((-3.541e+01 -1.042e+02 4.148e+00) (1.502e-03 5.386e-02 9.390e-02) (0.000e+00 0.000e+00 0.000e+00))
103        	((-4.494e+00 -2.179e+00 -1.157e+02) (-2.438e-01 -9.412e-03 9.515e-03) (0.000e+00 0.000e+00 0.000e+00)) ((-3.564e+01 -1.049e+02 4.157e+00) (1.520e-03 5.444e-02 9.509e-02) (0.000e+00 0.000e+00 0.000e+00))
104        	((-4.495e+00 -2.185e+00 -1.165e+02) (-2.474e-01 -9.423e-03 9.441e-03) (0.000e+00 0.000e+00 0.000e+00)) ((-3.586e+01 -1.055e+02 4.167e+00) (1.512e-03 5.502e-02 9.637e-02) (0.000e+00 0.000e+00 0.000e+00))
105        	((-4.506e+00 -2.188e+00 -1.172e+02) (-2.512e-01 -9.517e-03 9.325e-03) (0.000e+00 0.000e+00 0.000e+00)) ((-3.603e+01 -1.062e+02 4.179e+00) (1.461e-03 5.562e-02 9.777e-02) (0.000e+00 0.000e+00 0.000e+00))
106        	((-4.522e+00 -2.186e+00 -1.176e+02) (-2.553e-01 -9.701e-03 9.185e-03) (0.000e+00 0.000e+00 0.000e+00)) ((-3.610e+01 -1.067e+02 4.192e+00) (1.378e-03 5.624e-02 9.931e-02) (0.000e+00 0.000e+00 0.000e+00))
107        	((-4.538e+00 -2.182e+00 -1.178e+02) (-2.594e-01 -9.969e-03 9.038e-03) (0.000e+00 0.000e+00 0.000e+00)) ((-3.606e+01 -1.069e+02 4.204e+00) (1.272e-03 5.687e-02 1.009e-01) (0.000e+00 0.000e+00 0.000e+00))
108        	((-4.542e+00 -2.176e+00 -1.175e+02) (-2.636e-01 -1.035e-02 8.932e-03) (0.000e+00 0.000e+00 0.000e+00)) ((-3.589e+01 -1.067e+02 4.213e+00) (1.168e-03 5.753e-02 1.027e-01) (0.000e+00 0.000e+00 0.000e+00))
109        	((-4.529e+00 -2.169e+00 -1.169e+02) (-2.679e-01 -1.080e-02 8.851e-03) (0.000e+00 0.000e+00 0.000e+00)) ((-3.560e+01 -1.061e+02 4.216e+00) (1.061e-03 5.820e-02 1.045e-01) (0.000e+00 0.000e+00 0.000e+00))
110        	((-4.500e+00 -2.162e+00 -1.160e+02) (-2.723e-01 -1.132e-02 8.767e-03) (0.000e+00 0.000e+00 0.000e+00)) ((-3.521e+01 -1.052e+02 4.214e+00) (9.334e-04 5.886e-02 1.065e-01) (0.000e+00 0.000e+00 0.000e+00))
111        	((-4.459e+00 -2.154e+00 -1.149e+02) (-2.767e-01 -1.194e-02 8.691e-03) (0.000e+00 0.000e+00 0.000e+00)) ((-3.480e+01 -1.041e+02 4.207e+00) (7.956e-04 5.951e-02 1.085e-01) (0.000e+00 0.000e+00 0.000e+00))
112        	((-4.416e+00 -2.149e+00 -1.138e+02) (-2.811e-01 -1.259e-02 8.628e-03) (0.000e+00 0.000e+00 0.000e+00)) ((-3.441e+01 -1.030e+02 4.199e+00) (6.475e-04 6.015e-02 1.106e-01) (0.000e+00 0.000e+00 0.000e+00))
113        	((-4.378e+00 -2.148e+00 -1.129e+02) (-2.853e-01 -1.328e-02 8.576e-03) (0.000e+00 0.000e+00 0.000e+00)) ((-3.410e+01 -1.019e+02 4.194e+00) (5.017e-04 6.077e-02 1.127e-01) (0.000e+00 0.000e+00 0.000e+00))
114        	((-4.356e+00 -2.149e+00 -1.123e+02) (-2.895e-01 -1.397e-02 8.537e-03) (0.000e+00 0.000e+00 0.000e+00)) ((-3.396e+01 -1.013e+02 4.192e+00) (3.582e-04 6.140e-02 1.148e-01) (0.000e+00 0.000e+00 0.000e+00))
115        	((-4.357e+00 -2.154e+00 -1.123e+02) (-2.934e-01 -1.465e-02 8.522e-03) (0.000e+00 0.000e+00 0.000e+00)) ((-3.399e+01 -1.011e+02 4.197e+00) (2.327e-04 6.202e-02 1.168e-01) (0.000e+00 0.000e+00 0.000e+00))
116        	((-4.382e+00 -2.161e+00 -1.127e+02) (-2.972e-01 -1.533e-02 8.540e-03) (0.000e+00 0.000e+00 0.000e+00)) ((-3.418e+01 -1.015e+02 4.210e+00) (1.212e-04 6.266e-02 1.188e-01) (0.000e+00 0.000e+00 0.000e+00))
117        	((-4.424e+00 -2.170e+00 -1.135e+02) (-3.008e-01 -1.599e-02 8.619e-03) (0.000e+00 0.000e+00 0.000e+00)) ((-3.447e+01 -1.021e+02 4.227e+00) (4.897e-05 6.330e-02 1.207e-01) (0.000e+00 0.000e+00 0.000e+00))
118        	((-4.472e+00 -2.179e+00 -1.143e+02) (-3.041e-01 -1.662e-02 8.758e-03) (0.000e+00 0.000e+00 0.000e+00)) ((-3.480e+01 -1.029e+02 4.245e+00) (1.297e-05 6.396e-02 1.225e-01) (0.000e+00 0.000e+00 0.000e+00))
119        	((-4.517e+00 -2.189e+00 -1.151e+02) (-3.072e-01 -1.720e-02 8.929e-03) (0.000e+00 0.000e+00 0.000e+00)) ((-3.512e+01 -1.036e+02 4.261e+00) (3.604e-06 6.459e-02 1.241e-01) (0.000e+00 0.000e+00 0.000e+00))
120        	((-4.558e+00 -2.198e+00 -1.157e+02) (-3.102e-01 -1.779e-02 9.163e-03) (0.000e+00 0.000e+00 0.000e+00)) ((-3.542e+01 -1.043e+02 4.276e+00) (3.375e-05 6.525e-02 1.256e-01) (0.000e+00 0.000e+00 0.000e+00))
121        	((-4.590e+00 -2.209e+00 -1.162e+02) (-3.130e-01 -1.839e-02 9.378e-03) (0.000e+00 0.000e+00 0.000e+00)) ((-3.569e+01 -1.047e+02 4.287e+00) (5.197e-05 6.588e-02 1.271e-01) (0.000e+00 0.000e+00 0.000e+00))
122        	((-4.612e+00 -2.220e+00 -1.166e+02) (-3.159e-01 -1.902e-02 9.577e-03) (0.000e+00 0.000e+00 0.000e+00)) ((-3.592e+01 -1.051e+02 4.295e+00) (4.600e-05 6.652e-02 1.286e-01) (0.000e+00 0.000e+00 0.000e+00))
123        	((-4.623e+00 -2.232e+00 -1.168e+02) (-3.187e-01 -1.971e-02 9.638e-03) (0.000e+00 0.000e+00 0.000e+00)) ((-3.611e+01 -1.053e+02 4.300e+00) (-6.102e-05 6.706e-02 1.302e-01) (0.000e+00 0.000e+00 0.000e+00))
124        	((-4.627e+00 -2.245e+00 -1.168e+02) (-3.215e-01 -2.046e-02 9.698e-03) (0.000e+00 0.000e+00 0.000e+00)) ((-3.625e+01 -1.053e+02 4.304e+00) (-1.840e-04 6.761e-02 1.318e-01) (0.000e+00 0.000e+00 0.000e+00))
125        	((-4.625e+00 -2.258e+00 -1.167e+02) (-3.243e-01 -2.124e-02 9.715e-03) (0.000e+00 0.000e+00 0.000e+00)) ((-3.633e+01 -1.052e+02 4.309e+00) (-3.400e-04 6.814e-02 1.334e-01) (0.000e+00 0.000e+00 0.000e+00))
126        	((-4.618e+00 -2.274e+00 -1.164e+02) (-3.271e-01 -2.202e-02 9.690e-03) (0.000e+00 0.000e+00 0.000e+00)) ((-3.632e+01 -1.049e+02 4.317e+00) (-5.217e-04 6.863e-02 1.351e-01) (0.000e+00 0.000e+00 0.000e+00))
127        	((-4.606e+00 -2.291e+00 -1.159e+02) (-3.298e-01 -2.279e-02 9.645e-03) (0.000e+00 0.000e+00 0.000e+00)) ((-3.625e+01 -1.045e+02 4.328e+00) (-7.116e-04 6.909e-02 1.368e-01) (0.000e+00 0.000e+00 0.000e+00))
128        	((-4.591e+00 -2.313e+00 -1.152e+02) (-3.324e-01 -2.358e-02 9.620e-03) (0.000e+00 0.000e+00 0.000e+00)) ((-3.611e+01 -1.040e+02 4.345e+00) (-8.929e-04 6.952e-02 1.386e-01) (0.000e+00 0.000e+00 0.000e+00))
129        	((-4.571e+00 -2.339e+00 -1.145e+02) (-3.350e-01 -2.443e-02 9.652e-03) (0.000e+00 0.000e+00 0.000e+00)) ((-3.592e+01 -1.033e+02 4.367e+00) (-1.045e-03 6.997e-02 1.404e-01) (0.000e+00 0.000e+00 0.000e+00))
130        	((-4.548e+00 -2.370e+00 -1.136e+02) (-3.377e-01 -2.536e-02 9.664e-03) (0.000e+00 0.000e+00 0.000e+00)) ((-3.570e+01 -1.025e+02 4.394e+00) (-1.220e-03 7.042e-02 1.423e-01) (0.000e+00 0.000e+00 0.000e+00))
131        	((-4.522e+00 -2.405e+00 -1.126e+02) (-3.405e-01 -2.628e-02 9.668e-03) (0.000e+00 0.000e+00 0.000e+00)) ((-3.546e+01 -1.017e+02 4.426e+00) (-1.395e-03 7.089e-02 1.444e-01) (0.000e+00 0.000e+00 0.000e+00))
132        	((-4.495e+00 -2.443e+00 -1.117e+02) (-3.434e-01 -2.716e-02 9.675e-03) (0.000e+00 0.000e+00 0.000e+00)) ((-3.523e+01 -1.010e+02 4.461e+00) (-1.557e-03 7.139e-02 1.466e-01) (0.000e+00 0.000e+00 0.000e+00))
133        	((-4.467e+00 -2.482e+00 -1.109e+02) (-3.465e-01 -2.800e-02 9.678e-03) (0.000e+00 0.000e+00 0.000e+00)) ((-3.503e+01 -1.003e+02 4.498e+00) (-1.712e-03 7.193e-02 1.488e-01) (0.000e+00 0.000e+00 0.000e+00))
134        	((-4.442e+00 -2.519e+00 -1.102e+02) (-3.497e-01 -2.876e-02 9.695e-03) (0.000e+00 0.000e+00 0.000e+00)) ((-3.487e+01 -9.968e+01 4.535e+00) (-1.843e-03 7.251e-02 1.510e-01) (0.000e+00 0.000e+00 0.000e+00))
135        	((-4.420e+00 -2.553e+00 -1.095e+02) (-3.529e-01 -2.945e-02 9.730e-03) (0.000e+00 0.000e+00 0.000e+00)) ((-3.472e+01 -9.915e+01 4.568e+00) (-1.949e-03 7.313e-02 1.533e-01) (0.000e+00 0.000e+00 0.000e+00))
136        	((-4.404e+00 -2.580e+00 -1.089e+02) (-3.563e-01 -3.009e-02 9.773e-03) (0.000e+00 0.000e+00 0.000e+00)) ((-3.458e+01 -9.866e+01 4.596e+00) (-2.047e-03 7.377e-02 1.556e-01) (0.000e+00 0.000e+00 0.000e+00))
137        	((-4.394e+00 -2.599e+00 -1.083e+02) (-3.598e-01 -3.066e-02 9.788e-03) (0.000e+00 0.000e+00 0.000e+00)) ((-3.442e+01 -9.821e+01 4.618e+00) (-2.142e-03 7.441e-02 1.579e-01) (0.000e+00 0.000e+00 0.000e+00))
138        	((-4.395e+00 -2.610e+00 -1.077e+02) (-3.635e-01 -3.116e-02 9.845e-03) (0.000e+00 0.000e+00 0.000e+00)) ((-3.425e+01 -9.780e+01 4.633e+00) (-2.205e-03 7.511e-02 1.602e-01) (0.000e+00 0.000e+00 0.000e+00))