# Forces   
# CofR     : (0.000e+00 0.000e+00 0.000e+00)
# Time     forces(pressure viscous porous)	moments(pressure viscous porous)
1          	((-1.667e+02 -2.433e+01 -1.729e+01) (-1.022e-01 -1.328e-02 -6.711e-02) (0.000e+00 0.000e+00 0.000e+00)) ((4.410e+00 -5.768e+01 -6.172e+01) (-4.808e-03 -6.228e-02 2.864e-02) (0.000e+00 0.000e+00 0.000e+00))
2          	((-6.613e+01 8.253e-01 5.634e+00) (-8.858e-02 -6.036e-03 -3.838e-02) (0.000e+00 0.000e+00 0.000e+00)) ((1.666e+00 -1.985e+01 -2.176e+01) (-2.670e-03 -3.989e-02 2.742e-02) (0.000e+00 0.000e+00 0.000e+00))
3          	((-3.927e+01 9.964e+00 8.188e+00) (-8.755e-02 -2.146e-03 -2.883e-02) (0.000e+00 0.000e+00 0.000e+00)) ((6.351e-01 -9.552e+00 -1.002e+01) (-2.236e-03 -3.320e-02 2.671e-02) (0.000e+00 0.000e+00 0.000e+00))
4          	((-1.983e+01 1.719e+01 7.744e+00) (-8.692e-02 1.327e-04 -2.219e-02) (0.000e+00 0.000e+00 0.000e+00)) ((-2.142e-01 -3.033e+00 -4.641e+00) (-1.967e-03 -2.868e-02 2.597e-02) (0.000e+00 0.000e+00 0.000e+00))
5          	((-1.254e+01 1.884e+01 5.918e+00) (-8.633e-02 1.815e-03 -1.650e-02) (0.000e+00 0.000e+00 0.000e+00)) ((-4.802e-01 -1.212e+00 -3.939e+00) (-1.770e-03 -2.497e-02 2.534e-02) (0.000e+00 0.000e+00 0.000e+00))
6          	((-1.077e+01 2.046e+01 3.159e+00) (-8.691e-02 2.527e-03 -1.245e-02) (0.000e+00 0.000e+00 0.000e+00)) ((-7.369e-01 -1.281e+00 -4.406e+00) (-1.387e-03 -2.228e-02 2.477e-02) (0.000e+00 0.000e+00 0.000e+00))
7          	((-1.205e+01 2.208e+01 3.150e-01) (-8.810e-02 3.038e-03 -9.035e-03) (0.000e+00 0.000e+00 0.000e+00)) ((-9.387e-01 -2.134e+00 -5.568e+00) (-1.000e-03 -2.002e-02 2.429e-02) (0.000e+00 0.000e+00 0.000e+00))
8          	((-1.223e+01 2.202e+01 -4.950e-01) (-8.891e-02 3.355e-03 -6.395e-03) (0.000e+00 0.000e+00 0.000e+00)) ((-9.276e-01 -2.269e+00 -5.973e+00) (-5.836e-04 -1.816e-02 2.379e-02) (0.000e+00 0.000e+00 0.000e+00))
9          	((-1.302e+01 2.256e+01 -1.434e+00) (-8.846e-02 3.541e-03 -4.591e-03) (0.000e+00 0.000e+00 0.000e+00)) ((-9.755e-01 -2.536e+00 -6.521e+00) (-2.108e-04 -1.622e-02 2.320e-02) (0.000e+00 0.000e+00 0.000e+00))
10         	((-1.307e+01 2.260e+01 -1.720e+00) (-8.761e-02 3.699e-03 -3.102e-03) (0.000e+00 0.000e+00 0.000e+00)) ((-1.002e+00 -2.557e+00 -6.656e+00) (1.084e-04 -1.447e-02 2.270e-02) (0.000e+00 0.000e+00 0.000e+00))
11         	((-1.293e+01 2.285e+01 -2.088e+00) (-8.741e-02 3.813e-03 -1.638e-03) (0.000e+00 0.000e+00 0.000e+00)) ((-1.066e+00 -2.560e+00 -6.828e+00) (4.054e-04 -1.309e-02 2.244e-02) (0.000e+00 0.000e+00 0.000e+00))
12         	((-1.271e+01 2.315e+01 -2.496e+00) (-8.741e-02 4.042e-03 -4.347e-04) (0.000e+00 0.000e+00 0.000e+00)) ((-1.153e+00 -2.555e+00 -6.939e+00) (6.126e-04 -1.197e-02 2.223e-02) (0.000e+00 0.000e+00 0.000e+00))
13         	((-1.237e+01 2.331e+01 -2.823e+00) (-8.764e-02 4.227e-03 6.327e-04) (0.000e+00 0.000e+00 0.000e+00)) ((-1.240e+00 -2.543e+00 -6.969e+00) (7.691e-04 -1.108e-02 2.212e-02) (0.000e+00 0.000e+00 0.000e+00))
14         	((-1.197e+01 2.328e+01 -3.076e+00) (-8.789e-02 4.275e-03 1.543e-03) (0.000e+00 0.000e+00 0.000e+00)) ((-1.322e+00 -2.543e+00 -6.918e+00) (9.150e-04 -1.033e-02 2.213e-02) (0.000e+00 0.000e+00 0.000e+00))
15         	((-1.171e+01 2.316e+01 -3.377e+00) (-8.809e-02 4.420e-03 2.204e-03) (0.000e+00 0.000e+00 0.000e+00)) ((-1.411e+00 -2.623e+00 -6.812e+00) (1.001e-03 -9.772e-03 2.202e-02) (0.000e+00 0.000e+00 0.000e+00))
16         	((-1.151e+01 2.301e+01 -3.718e+00) (-8.821e-02 4.450e-03 2.713e-03) (0.000e+00 0.000e+00 0.000e+00)) ((-1.506e+00 -2.734e+00 -6.699e+00) (1.084e-03 -9.316e-03 2.203e-02) (0.000e+00 0.000e+00 0.000e+00))
17         	((-1.151e+01 2.282e+01 -4.036e+00) (-8.846e-02 4.559e-03 3.073e-03) (0.000e+00 0.000e+00 0.000e+00)) ((-1.593e+00 -2.896e+00 -6.608e+00) (1.118e-03 -9.026e-03 2.199e-02) (0.000e+00 0.000e+00 0.000e+00))
18         	((-1.165e+01 2.268e+01 -4.350e+00) (-8.864e-02 4.568e-03 3.322e-03) (0.000e+00 0.000e+00 0.000e+00)) ((-1.671e+00 -3.081e+00 -6.579e+00) (1.168e-03 -8.818e-03 2.198e-02) (0.000e+00 0.000e+00 0.000e+00))
19         	((-1.185e+01 2.261e+01 -4.647e+00) (-8.866e-02 4.559e-03 3.556e-03) (0.000e+00 0.000e+00 0.000e+00)) ((-1.738e+00 -3.254e+00 -6.616e+00) (1.195e-03 -8.666e-03 2.197e-02) (0.000e+00 0.000e+00 0.000e+00))
20         	((-1.199e+01 2.254e+01 -4.872e+00) (-8.853e-02 4.550e-03 3.873e-03) (0.000e+00 0.000e+00 0.000e+00)) ((-1.786e+00 -3.375e+00 -6.658e+00) (1.244e-03 -8.420e-03 2.193e-02) (0.000e+00 0.000e+00 0.000e+00))
21         	((-1.222e+01 2.270e+01 -5.245e+00) (-8.826e-02 4.527e-03 4.225e-03) (0.000e+00 0.000e+00 0.000e+00)) ((-1.866e+00 -3.527e+00 -6.818e+00) (1.311e-03 -8.160e-03 2.187e-02) (0.000e+00 0.000e+00 0.000e+00))
22         	((-1.230e+01 2.269e+01 -5.385e+00) (-8.806e-02 4.502e-03 4.555e-03) (0.000e+00 0.000e+00 0.000e+00)) ((-1.912e+00 -3.601e+00 -6.860e+00) (1.403e-03 -7.916e-03 2.181e-02) (0.000e+00 0.000e+00 0.000e+00))
23         	((-1.226e+01 2.282e+01 -5.553e+00) (-8.775e-02 4.548e-03 4.830e-03) (0.000e+00 0.000e+00 0.000e+00)) ((-1.977e+00 -3.631e+00 -6.968e+00) (1.503e-03 -7.672e-03 2.170e-02) (0.000e+00 0.000e+00 0.000e+00))
24         	((-1.216e+01 2.282e+01 -5.538e+00) (-8.745e-02 4.680e-03 5.053e-03) (0.000e+00 0.000e+00 0.000e+00)) ((-2.010e+00 -3.616e+00 -6.990e+00) (1.594e-03 -7.472e-03 2.157e-02) (0.000e+00 0.000e+00 0.000e+00))
25         	((-1.189e+01 2.270e+01 -5.359e+00) (-8.708e-02 4.817e-03 5.188e-03) (0.000e+00 0.000e+00 0.000e+00)) ((-2.028e+00 -3.530e+00 -7.040e+00) (1.692e-03 -7.293e-03 2.144e-02) (0.000e+00 0.000e+00 0.000e+00))
26         	((-1.176e+01 2.257e+01 -5.178e+00) (-8.662e-02 4.926e-03 5.319e-03) (0.000e+00 0.000e+00 0.000e+00)) ((-2.028e+00 -3.479e+00 -7.071e+00) (1.789e-03 -7.105e-03 2.131e-02) (0.000e+00 0.000e+00 0.000e+00))
27         	((-1.155e+01 2.215e+01 -4.753e+00) (-8.612e-02 5.032e-03 5.452e-03) (0.000e+00 0.000e+00 0.000e+00)) ((-1.992e+00 -3.389e+00 -7.169e+00) (1.893e-03 -6.900e-03 2.121e-02) (0.000e+00 0.000e+00 0.000e+00))
28         	((-1.142e+01 2.196e+01 -4.524e+00) (-8.561e-02 5.093e-03 5.626e-03) (0.000e+00 0.000e+00 0.000e+00)) ((-1.970e+00 -3.320e+00 -7.247e+00) (2.002e-03 -6.658e-03 2.114e-02) (0.000e+00 0.000e+00 0.000e+00))
29         	((-1.126e+01 2.148e+01 -4.064e+00) (-8.513e-02 5.147e-03 5.760e-03) (0.000e+00 0.000e+00 0.000e+00)) ((-1.908e+00 -3.223e+00 -7.413e+00) (2.104e-03 -6.456e-03 2.110e-02) (0.000e+00 0.000e+00 0.000e+00))
30         	((-1.109e+01 2.129e+01 -3.859e+00) (-8.461e-02 5.060e-03 5.877e-03) (0.000e+00 0.000e+00 0.000e+00)) ((-1.876e+00 -3.121e+00 -7.481e+00) (2.237e-03 -6.262e-03 2.114e-02) (0.000e+00 0.000e+00 0.000e+00))
31         	((-1.092e+01 2.097e+01 -3.517e+00) (-8.414e-02 4.992e-03 6.000e-03) (0.000e+00 0.000e+00 0.000e+00)) ((-1.826e+00 -3.007e+00 -7.608e+00) (2.368e-03 -6.078e-03 2.118e-02) (0.000e+00 0.000e+00 0.000e+00))
32         	((-1.076e+01 2.079e+01 -3.402e+00) (-8.378e-02 4.907e-03 6.214e-03) (0.000e+00 0.000e+00 0.000e+00)) ((-1.797e+00 -2.912e+00 -7.601e+00) (2.501e-03 -5.917e-03 2.127e-02) (0.000e+00 0.000e+00 0.000e+00))
33         	((-1.059e+01 2.050e+01 -3.202e+00) (-8.351e-02 4.809e-03 6.378e-03) (0.000e+00 0.000e+00 0.000e+00)) ((-1.757e+00 -2.817e+00 -7.616e+00) (2.653e-03 -5.735e-03 2.139e-02) (0.000e+00 0.000e+00 0.000e+00))
34         	((-1.047e+01 2.029e+01 -3.158e+00) (-8.337e-02 4.804e-03 6.665e-03) (0.000e+00 0.000e+00 0.000e+00)) ((-1.734e+00 -2.773e+00 -7.531e+00) (2.813e-03 -5.528e-03 2.150e-02) (0.000e+00 0.000e+00 0.000e+00))
35         	((-1.034e+01 1.998e+01 -3.014e+00) (-8.330e-02 4.927e-03 6.971e-03) (0.000e+00 0.000e+00 0.000e+00)) ((-1.702e+00 -2.742e+00 -7.471e+00) (2.973e-03 -5.281e-03 2.152e-02) (0.000e+00 0.000e+00 0.000e+00))
36         	((-1.028e+01 1.972e+01 -2.970e+00) (-8.326e-02 5.132e-03 7.268e-03) (0.000e+00 0.000e+00 0.000e+00)) ((-1.681e+00 -2.757e+00 -7.368e+00) (3.136e-03 -5.063e-03 2.148e-02) (0.000e+00 0.000e+00 0.000e+00))
37         	((-1.023e+01 1.929e+01 -2.726e+00) (-8.331e-02 5.470e-03 7.571e-03) (0.000e+00 0.000e+00 0.000e+00)) ((-1.643e+00 -2.792e+00 -7.306e+00) (3.297e-03 -4.880e-03 2.138e-02) (0.000e+00 0.000e+00 0.000e+00))
38         	((-1.021e+01 1.898e+01 -2.598e+00) (-8.348e-02 5.897e-03 7.824e-03) (0.000e+00 0.000e+00 0.000e+00)) ((-1.619e+00 -2.837e+00 -7.225e+00) (3.448e-03 -4.782e-03 2.124e-02) (0.000e+00 0.000e+00 0.000e+00))
39         	((-1.024e+01 1.853e+01 -2.204e+00) (-8.374e-02 6.327e-03 8.033e-03) (0.000e+00 0.000e+00 0.000e+00)) ((-1.574e+00 -2.895e+00 -7.195e+00) (3.589e-03 -4.735e-03 2.110e-02) (0.000e+00 0.000e+00 0.000e+00))
40         	((-1.026e+01 1.825e+01 -2.028e+00) (-8.402e-02 6.801e-03 8.217e-03) (0.000e+00 0.000e+00 0.000e+00)) ((-1.545e+00 -2.943e+00 -7.113e+00) (3.716e-03 -4.745e-03 2.091e-02) (0.000e+00 0.000e+00 0.000e+00))
41         	((-1.032e+01 1.793e+01 -1.616e+00) (-8.432e-02 7.348e-03 8.327e-03) (0.000e+00 0.000e+00 0.000e+00)) ((-1.507e+00 -2.993e+00 -7.069e+00) (3.821e-03 -4.862e-03 2.062e-02) (0.000e+00 0.000e+00 0.000e+00))
42         	((-1.036e+01 1.772e+01 -1.470e+00) (-8.470e-02 7.924e-03 8.386e-03) (0.000e+00 0.000e+00 0.000e+00)) ((-1.478e+00 -3.025e+00 -6.968e+00) (3.921e-03 -5.051e-03 2.030e-02) (0.000e+00 0.000e+00 0.000e+00))
43         	((-1.041e+01 1.752e+01 -1.251e+00) (-8.510e-02 8.522e-03 8.489e-03) (0.000e+00 0.000e+00 0.000e+00)) ((-1.450e+00 -3.049e+00 -6.874e+00) (4.035e-03 -5.199e-03 1.991e-02) (0.000e+00 0.000e+00 0.000e+00))
44         	((-1.051e+01 1.735e+01 -1.065e+00) (-8.542e-02 9.109e-03 8.710e-03) (0.000e+00 0.000e+00 0.000e+00)) ((-1.426e+00 -3.074e+00 -6.783e+00) (4.157e-03 -5.265e-03 1.950e-02) (0.000e+00 0.000e+00 0.000e+00))
45         	((-1.067e+01 1.717e+01 -9.246e-01) (-8.574e-02 9.640e-03 8.930e-03) (0.000e+00 0.000e+00 0.000e+00)) ((-1.404e+00 -3.109e+00 -6.692e+00) (4.268e-03 -5.328e-03 1.913e-02) (0.000e+00 0.000e+00 0.000e+00))
46         	((-1.092e+01 1.698e+01 -8.319e-01) (-8.622e-02 1.011e-02 9.113e-03) (0.000e+00 0.000e+00 0.000e+00)) ((-1.383e+00 -3.152e+00 -6.607e+00) (4.350e-03 -5.482e-03 1.886e-02) (0.000e+00 0.000e+00 0.000e+00))
47         	((-1.123e+01 1.682e+01 -7.865e-01) (-8.668e-02 1.051e-02 9.266e-03) (0.000e+00 0.000e+00 0.000e+00)) ((-1.369e+00 -3.200e+00 -6.535e+00) (4.401e-03 -5.610e-03 1.867e-02) (0.000e+00 0.000e+00 0.000e+00))
48         	((-1.155e+01 1.669e+01 -7.799e-01) (-8.721e-02 1.090e-02 9.333e-03) (0.000e+00 0.000e+00 0.000e+00)) ((-1.361e+00 -3.240e+00 -6.474e+00) (4.395e-03 -5.779e-03 1.855e-02) (0.000e+00 0.000e+00 0.000e+00))
49         	((-1.181e+01 1.662e+01 -8.057e-01) (-8.779e-02 1.121e-02 9.309e-03) (0.000e+00 0.000e+00 0.000e+00)) ((-1.362e+00 -3.263e+00 -6.418e+00) (4.348e-03 -6.009e-03 1.851e-02) (0.000e+00 0.000e+00 0.000e+00))
50         	((-1.199e+01 1.659e+01 -8.361e-01) (-8.843e-02 1.148e-02 9.246e-03) (0.000e+00 0.000e+00 0.000e+00)) ((-1.368e+00 -3.260e+00 -6.367e+00) (4.273e-03 -6.245e-03 1.852e-02) (0.000e+00 0.000e+00 0.000e+00))
51         	((-1.208e+01 1.658e+01 -8.448e-01) (-8.911e-02 1.181e-02 9.202e-03) (0.000e+00 0.000e+00 0.000e+00)) ((-1.373e+00 -3.228e+00 -6.332e+00) (4.179e-03 -6.471e-03 1.847e-02) (0.000e+00 0.000e+00 0.000e+00))
52         	((-1.207e+01 1.657e+01 -8.349e-01) (-8.996e-02 1.222e-02 9.215e-03) (0.000e+00 0.000e+00 0.000e+00)) ((-1.376e+00 -3.176e+00 -6.313e+00) (4.059e-03 -6.633e-03 1.840e-02) (0.000e+00 0.000e+00 0.000e+00))
53         	((-1.199e+01 1.654e+01 -8.166e-01) (-9.083e-02 1.266e-02 9.194e-03) (0.000e+00 0.000e+00 0.000e+00)) ((-1.371e+00 -3.115e+00 -6.304e+00) (3.923e-03 -6.827e-03 1.829e-02) (0.000e+00 0.000e+00 0.000e+00))
54         	((-1.187e+01 1.646e+01 -7.943e-01) (-9.178e-02 1.307e-02 9.006e-03) (0.000e+00 0.000e+00 0.000e+00)) ((-1.361e+00 -3.055e+00 -6.291e+00) (3.747e-03 -7.170e-03 1.822e-02) (0.000e+00 0.000e+00 0.000e+00))
55         	((-1.173e+01 1.632e+01 -7.614e-01) (-9.284e-02 1.326e-02 8.759e-03) (0.000e+00 0.000e+00 0.000e+00)) ((-1.348e+00 -2.996e+00 -6.266e+00) (3.592e-03 -7.587e-03 1.834e-02) (0.000e+00 0.000e+00 0.000e+00))
56         	((-1.158e+01 1.616e+01 -7.018e-01) (-9.396e-02 1.327e-02 8.555e-03) (0.000e+00 0.000e+00 0.000e+00)) ((-1.336e+00 -2.938e+00 -6.234e+00) (3.471e-03 -7.997e-03 1.864e-02) (0.000e+00 0.000e+00 0.000e+00))
57         	((-1.143e+01 1.600e+01 -6.141e-01) (-9.522e-02 1.308e-02 8.458e-03) (0.000e+00 0.000e+00 0.000e+00)) ((-1.328e+00 -2.881e+00 -6.210e+00) (3.414e-03 -8.347e-03 1.914e-02) (0.000e+00 0.000e+00 0.000e+00))
58         	((-1.129e+01 1.587e+01 -5.140e-01) (-9.664e-02 1.276e-02 8.536e-03) (0.000e+00 0.000e+00 0.000e+00)) ((-1.324e+00 -2.836e+00 -6.211e+00) (3.418e-03 -8.546e-03 1.976e-02) (0.000e+00 0.000e+00 0.000e+00))
59         	((-1.117e+01 1.582e+01 -4.072e-01) (-9.818e-02 1.249e-02 8.857e-03) (0.000e+00 0.000e+00 0.000e+00)) ((-1.325e+00 -2.806e+00 -6.248e+00) (3.482e-03 -8.553e-03 2.039e-02) (0.000e+00 0.000e+00 0.000e+00))
60         	((-1.113e+01 1.590e+01 -3.962e-01) (-9.966e-02 1.224e-02 9.203e-03) (0.000e+00 0.000e+00 0.000e+00)) ((-1.341e+00 -2.812e+00 -6.294e+00) (3.561e-03 -8.495e-03 2.102e-02) (0.000e+00 0.000e+00 0.000e+00))
61         	((-1.115e+01 1.610e+01 -4.839e-01) (-1.012e-01 1.212e-02 9.506e-03) (0.000e+00 0.000e+00 0.000e+00)) ((-1.367e+00 -2.853e+00 -6.356e+00) (3.627e-03 -8.434e-03 2.160e-02) (0.000e+00 0.000e+00 0.000e+00))
62         	((-1.120e+01 1.627e+01 -5.835e-01) (-1.026e-01 1.202e-02 9.701e-03) (0.000e+00 0.000e+00 0.000e+00)) ((-1.384e+00 -2.890e+00 -6.386e+00) (3.693e-03 -8.398e-03 2.215e-02) (0.000e+00 0.000e+00 0.000e+00))
63         	((-1.133e+01 1.649e+01 -9.129e-01) (-1.041e-01 1.209e-02 9.719e-03) (0.000e+00 0.000e+00 0.000e+00)) ((-1.414e+00 -2.959e+00 -6.366e+00) (3.713e-03 -8.504e-03 2.263e-02) (0.000e+00 0.000e+00 0.000e+00))
64         	((-1.143e+01 1.655e+01 -1.075e+00) (-1.056e-01 1.209e-02 9.874e-03) (0.000e+00 0.000e+00 0.000e+00)) ((-1.424e+00 -2.982e+00 -6.332e+00) (3.804e-03 -8.481e-03 2.316e-02) (0.000e+00 0.000e+00 0.000e+00))
65         	((-1.153e+01 1.652e+01 -1.342e+00) (-1.073e-01 1.213e-02 9.942e-03) (0.000e+00 0.000e+00 0.000e+00)) ((-1.436e+00 -3.001e+00 -6.248e+00) (3.880e-03 -8.569e-03 2.373e-02) (0.000e+00 0.000e+00 0.000e+00))
66         	((-1.159e+01 1.636e+01 -1.591e+00) (-1.091e-01 1.213e-02 1.007e-02) (0.000e+00 0.000e+00 0.000e+00)) ((-1.441e+00 -2.991e+00 -6.145e+00) (3.987e-03 -8.620e-03 2.437e-02) (0.000e+00 0.000e+00 0.000e+00))
67         	((-1.160e+01 1.606e+01 -1.749e+00) (-1.111e-01 1.213e-02 1.030e-02) (0.000e+00 0.000e+00 0.000e+00)) ((-1.433e+00 -2.958e+00 -6.049e+00) (4.115e-03 -8.607e-03 2.510e-02) (0.000e+00 0.000e+00 0.000e+00))
68         	((-1.155e+01 1.565e+01 -1.780e+00) (-1.133e-01 1.214e-02 1.060e-02) (0.000e+00 0.000e+00 0.000e+00)) ((-1.412e+00 -2.906e+00 -5.972e+00) (4.252e-03 -8.516e-03 2.586e-02) (0.000e+00 0.000e+00 0.000e+00))
69         	((-1.145e+01 1.516e+01 -1.696e+00) (-1.158e-01 1.208e-02 1.091e-02) (0.000e+00 0.000e+00 0.000e+00)) ((-1.381e+00 -2.845e+00 -5.905e+00) (4.375e-03 -8.433e-03 2.679e-02) (0.000e+00 0.000e+00 0.000e+00))
70         	((-1.132e+01 1.465e+01 -1.536e+00) (-1.184e-01 1.194e-02 1.129e-02) (0.000e+00 0.000e+00 0.000e+00)) ((-1.345e+00 -2.787e+00 -5.855e+00) (4.499e-03 -8.295e-03 2.778e-02) (0.000e+00 0.000e+00 0.000e+00))
71         	((-1.116e+01 1.416e+01 -1.342e+00) (-1.211e-01 1.180e-02 1.152e-02) (0.000e+00 0.000e+00 0.000e+00)) ((-1.306e+00 -2.734e+00 -5.814e+00) (4.587e-03 -8.311e-03 2.885e-02) (0.000e+00 0.000e+00 0.000e+00))
72         	((-1.100e+01 1.376e+01 -1.149e+00) (-1.237e-01 1.168e-02 1.170e-02) (0.000e+00 0.000e+00 0.000e+00)) ((-1.272e+00 -2.688e+00 -5.794e+00) (4.661e-03 -8.391e-03 2.983e-02) (0.000e+00 0.000e+00 0.000e+00))
73         	((-1.084e+01 1.345e+01 -9.812e-01) (-1.263e-01 1.151e-02 1.180e-02) (0.000e+00 0.000e+00 0.000e+00)) ((-1.245e+00 -2.652e+00 -5.794e+00) (4.743e-03 -8.537e-03 3.083e-02) (0.000e+00 0.000e+00 0.000e+00))
74         	((-1.071e+01 1.323e+01 -8.493e-01) (-1.288e-01 1.143e-02 1.188e-02) (0.000e+00 0.000e+00 0.000e+00)) ((-1.228e+00 -2.635e+00 -5.815e+00) (4.801e-03 -8.711e-03 3.172e-02) (0.000e+00 0.000e+00 0.000e+00))
75         	((-1.063e+01 1.309e+01 -7.585e-01) (-1.313e-01 1.135e-02 1.196e-02) (0.000e+00 0.000e+00 0.000e+00)) ((-1.223e+00 -2.639e+00 -5.847e+00) (4.852e-03 -8.950e-03 3.261e-02) (0.000e+00 0.000e+00 0.000e+00))
76         	((-1.058e+01 1.297e+01 -7.068e-01) (-1.338e-01 1.139e-02 1.225e-02) (0.000e+00 0.000e+00 0.000e+00)) ((-1.224e+00 -2.661e+00 -5.875e+00) (4.935e-03 -9.088e-03 3.341e-02) (0.000e+00 0.000e+00 0.000e+00))
77         	((-1.055e+01 1.290e+01 -6.956e-01) (-1.363e-01 1.155e-02 1.286e-02) (0.000e+00 0.000e+00 0.000e+00)) ((-1.229e+00 -2.690e+00 -5.894e+00) (5.086e-03 -9.031e-03 3.412e-02) (0.000e+00 0.000e+00 0.000e+00))
78         	((-1.055e+01 1.286e+01 -7.195e-01) (-1.385e-01 1.170e-02 1.371e-02) (0.000e+00 0.000e+00 0.000e+00)) ((-1.236e+00 -2.724e+00 -5.908e+00) (5.312e-03 -8.792e-03 3.476e-02) (0.000e+00 0.000e+00 0.000e+00))
79         	((-1.054e+01 1.286e+01 -7.599e-01) (-1.404e-01 1.184e-02 1.465e-02) (0.000e+00 0.000e+00 0.000e+00)) ((-1.243e+00 -2.753e+00 -5.913e+00) (5.572e-03 -8.422e-03 3.529e-02) (0.000e+00 0.000e+00 0.000e+00))
80         	((-1.051e+01 1.290e+01 -7.883e-01) (-1.418e-01 1.202e-02 1.557e-02) (0.000e+00 0.000e+00 0.000e+00)) ((-1.246e+00 -2.765e+00 -5.911e+00) (5.841e-03 -7.951e-03 3.564e-02) (0.000e+00 0.000e+00 0.000e+00))
81         	((-1.045e+01 1.292e+01 -7.849e-01) (-1.427e-01 1.207e-02 1.643e-02) (0.000e+00 0.000e+00 0.000e+00)) ((-1.240e+00 -2.759e+00 -5.891e+00) (6.133e-03 -7.408e-03 3.594e-02) (0.000e+00 0.000e+00 0.000e+00))
82         	((-1.035e+01 1.289e+01 -7.220e-01) (-1.431e-01 1.205e-02 1.719e-02) (0.000e+00 0.000e+00 0.000e+00)) ((-1.223e+00 -2.730e+00 -5.859e+00) (6.426e-03 -6.862e-03 3.616e-02) (0.000e+00 0.000e+00 0.000e+00))
83         	((-1.021e+01 1.279e+01 -5.866e-01) (-1.431e-01 1.197e-02 1.790e-02) (0.000e+00 0.000e+00 0.000e+00)) ((-1.194e+00 -2.681e+00 -5.820e+00) (6.704e-03 -6.288e-03 3.627e-02) (0.000e+00 0.000e+00 0.000e+00))
84         	((-1.006e+01 1.265e+01 -3.947e-01) (-1.432e-01 1.190e-02 1.843e-02) (0.000e+00 0.000e+00 0.000e+00)) ((-1.160e+00 -2.625e+00 -5.782e+00) (6.939e-03 -5.866e-03 3.635e-02) (0.000e+00 0.000e+00 0.000e+00))
85         	((-9.913e+00 1.247e+01 -1.854e-01) (-1.435e-01 1.186e-02 1.874e-02) (0.000e+00 0.000e+00 0.000e+00)) ((-1.123e+00 -2.574e+00 -5.752e+00) (7.103e-03 -5.692e-03 3.646e-02) (0.000e+00 0.000e+00 0.000e+00))
86         	((-9.787e+00 1.231e+01 -6.464e-03) (-1.444e-01 1.211e-02 1.927e-02) (0.000e+00 0.000e+00 0.000e+00)) ((-1.091e+00 -2.538e+00 -5.741e+00) (7.243e-03 -5.486e-03 3.652e-02) (0.000e+00 0.000e+00 0.000e+00))
87         	((-9.703e+00 1.220e+01 1.108e-01) (-1.456e-01 1.236e-02 1.964e-02) (0.000e+00 0.000e+00 0.000e+00)) ((-1.068e+00 -2.524e+00 -5.749e+00) (7.306e-03 -5.432e-03 3.665e-02) (0.000e+00 0.000e+00 0.000e+00))
88         	((-9.662e+00 1.215e+01 1.565e-01) (-1.470e-01 1.257e-02 2.017e-02) (0.000e+00 0.000e+00 0.000e+00)) ((-1.053e+00 -2.528e+00 -5.771e+00) (7.405e-03 -5.321e-03 3.682e-02) (0.000e+00 0.000e+00 0.000e+00))
89         	((-9.650e+00 1.213e+01 1.523e-01) (-1.487e-01 1.274e-02 2.070e-02) (0.000e+00 0.000e+00 0.000e+00)) ((-1.045e+00 -2.541e+00 -5.794e+00) (7.494e-03 -5.282e-03 3.709e-02) (0.000e+00 0.000e+00 0.000e+00))
90         	((-9.654e+00 1.212e+01 1.284e-01) (-1.504e-01 1.291e-02 2.125e-02) (0.000e+00 0.000e+00 0.000e+00)) ((-1.037e+00 -2.556e+00 -5.806e+00) (7.571e-03 -5.287e-03 3.739e-02) (0.000e+00 0.000e+00 0.000e+00))
91         	((-9.656e+00 1.210e+01 1.088e-01) (-1.522e-01 1.298e-02 2.180e-02) (0.000e+00 0.000e+00 0.000e+00)) ((-1.026e+00 -2.566e+00 -5.802e+00) (7.656e-03 -5.303e-03 3.773e-02) (0.000e+00 0.000e+00 0.000e+00))
92         	((-9.642e+00 1.205e+01 1.039e-01) (-1.540e-01 1.293e-02 2.238e-02) (0.000e+00 0.000e+00 0.000e+00)) ((-1.011e+00 -2.568e+00 -5.781e+00) (7.765e-03 -5.333e-03 3.817e-02) (0.000e+00 0.000e+00 0.000e+00))
93         	((-9.604e+00 1.197e+01 1.175e-01) (-1.557e-01 1.275e-02 2.298e-02) (0.000e+00 0.000e+00 0.000e+00)) ((-9.921e-01 -2.561e+00 -5.748e+00) (7.906e-03 -5.347e-03 3.869e-02) (0.000e+00 0.000e+00 0.000e+00))
94         	((-9.543e+00 1.188e+01 1.463e-01) (-1.576e-01 1.259e-02 2.386e-02) (0.000e+00 0.000e+00 0.000e+00)) ((-9.692e-01 -2.544e+00 -5.712e+00) (8.102e-03 -5.191e-03 3.921e-02) (0.000e+00 0.000e+00 0.000e+00))
95         	((-9.461e+00 1.177e+01 1.839e-01) (-1.596e-01 1.239e-02 2.484e-02) (0.000e+00 0.000e+00 0.000e+00)) ((-9.424e-01 -2.516e+00 -5.672e+00) (8.324e-03 -4.963e-03 3.980e-02) (0.000e+00 0.000e+00 0.000e+00))
96         	((-9.364e+00 1.163e+01 2.189e-01) (-1.617e-01 1.225e-02 2.559e-02) (0.000e+00 0.000e+00 0.000e+00)) ((-9.134e-01 -2.482e+00 -5.622e+00) (8.476e-03 -4.922e-03 4.034e-02) (0.000e+00 0.000e+00 0.000e+00))
97         	((-9.266e+00 1.149e+01 2.417e-01) (-1.637e-01 1.213e-02 2.666e-02) (0.000e+00 0.000e+00 0.000e+00)) ((-8.830e-01 -2.442e+00 -5.560e+00) (8.728e-03 -4.580e-03 4.081e-02) (0.000e+00 0.000e+00 0.000e+00))
98         	((-9.177e+00 1.137e+01 2.330e-01) (-1.657e-01 1.207e-02 2.752e-02) (0.000e+00 0.000e+00 0.000e+00)) ((-8.563e-01 -2.400e+00 -5.492e+00) (8.931e-03 -4.368e-03 4.121e-02) (0.000e+00 0.000e+00 0.000e+00))
99         	((-9.106e+00 1.129e+01 1.807e-01) (-1.676e-01 1.213e-02 2.831e-02) (0.000e+00 0.000e+00 0.000e+00)) ((-8.364e-01 -2.362e+00 -5.426e+00) (9.100e-03 -4.177e-03 4.150e-02) (0.000e+00 0.000e+00 0.000e+00))
100        	((-9.050e+00 1.125e+01 8.331e-02) (-1.695e-01 1.221e-02 2.892e-02) (0.000e+00 0.000e+00 0.000e+00)) ((-8.241e-01 -2.328e+00 -5.366e+00) (9.238e-03 -4.101e-03 4.176e-02) (0.000e+00 0.000e+00 0.000e+00))
101        	((-9.005e+00 1.125e+01 -5.188e-02) (-1.713e-01 1.229e-02 2.942e-02) (0.000e+00 0.000e+00 0.000e+00)) ((-8.183e-01 -2.300e+00 -5.315e+00) (9.372e-03 -4.068e-03 4.198e-02) (0.000e+00 0.000e+00 0.000e+00))
102        	((-8.972e+00 1.126e+01 -2.109e-01) (-1.731e-01 1.243e-02 2.967e-02) (0.000e+00 0.000e+00 0.000e+00)) ((-8.168e-01 -2.282e+00 -5.275e+00) (9.450e-03 -4.183e-03 4.216e-02) (0.000e+00 0.000e+00 0.000e+00))
103        	((-8.953e+00 1.127e+01 -3.697e-01) (-1.750e-01 1.247e-02 2.966e-02) (0.000e+00 0.000e+00 0.000e+00)) ((-8.168e-01 -2.273e+00 -5.250e+00) (9.509e-03 -4.477e-03 4.242e-02) (0.000e+00 0.000e+00 0.000e+00))
104        	((-8.944e+00 1.126e+01 -5.099e-01) (-1.768e-01 1.245e-02 2.956e-02) (0.000e+00 0.000e+00 0.000e+00)) ((-8.174e-01 -2.270e+00 -5.238e+00) (9.560e-03 -4.860e-03 4.274e-02) (0.000e+00 0.000e+00 0.000e+00))
105        	((-8.942e+00 1.124e+01 -6.189e-01) (-1.787e-01 1.238e-02 2.941e-02) (0.000e+00 0.000e+00 0.000e+00)) ((-8.172e-01 -2.271e+00 -5.239e+00) (9.610e-03 -5.278e-03 4.310e-02) (0.000e+00 0.000e+00 0.000e+00))
106        	((-8.943e+00 1.121e+01 -6.922e-01) (-1.804e-01 1.233e-02 2.904e-02) (0.000e+00 0.000e+00 0.000e+00)) ((-8.149e-01 -2.274e+00 -5.253e+00) (9.610e-03 -5.811e-03 4.339e-02) (0.000e+00 0.000e+00 0.000e+00))
107        	((-8.945e+00 1.118e+01 -7.345e-01) (-1.821e-01 1.237e-02 2.868e-02) (0.000e+00 0.000e+00 0.000e+00)) ((-8.107e-01 -2.279e+00 -5.282e+00) (9.598e-03 -6.356e-03 4.357e-02) (0.000e+00 0.000e+00 0.000e+00))
108        	((-8.946e+00 1.118e+01 -7.622e-01) (-1.836e-01 1.238e-02 2.835e-02) (0.000e+00 0.000e+00 0.000e+00)) ((-8.067e-01 -2.288e+00 -5.325e+00) (9.607e-03 -6.787e-03 4.372e-02) (0.000e+00 0.000e+00 0.000e+00))
109        	((-8.947e+00 1.121e+01 -7.897e-01) (-1.850e-01 1.247e-02 2.786e-02) (0.000e+00 0.000e+00 0.000e+00)) ((-8.059e-01 -2.301e+00 -5.379e+00) (9.560e-03 -7.274e-03 4.379e-02) (0.000e+00 0.000e+00 0.000e+00))
110        	((-8.949e+00 1.128e+01 -8.268e-01) (-1.863e-01 1.259e-02 2.735e-02) (0.000e+00 0.000e+00 0.000e+00)) ((-8.117e-01 -2.318e+00 -5.442e+00) (9.481e-03 -7.702e-03 4.388e-02) (0.000e+00 0.000e+00 0.000e+00))
111        	((-8.946e+00 1.140e+01 -8.756e-01) (-1.877e-01 1.272e-02 2.678e-02) (0.000e+00 0.000e+00 0.000e+00)) ((-8.248e-01 -2.336e+00 -5.514e+00) (9.360e-03 -8.124e-03 4.397e-02) (0.000e+00 0.000e+00 0.000e+00))
112        	((-8.938e+00 1.157e+01 -9.253e-01) (-1.889e-01 1.285e-02 2.620e-02) (0.000e+00 0.000e+00 0.000e+00)) ((-8.475e-01 -2.352e+00 -5.593e+00) (9.224e-03 -8.502e-03 4.408e-02) (0.000e+00 0.000e+00 0.000e+00))
113        	((-8.911e+00 1.178e+01 -9.688e-01) (-1.903e-01 1.301e-02 2.570e-02) (0.000e+00 0.000e+00 0.000e+00)) ((-8.785e-01 -2.360e+00 -5.675e+00) (9.083e-03 -8.780e-03 4.422e-02) (0.000e+00 0.000e+00 0.000e+00))
114        	((-8.876e+00 1.198e+01 -1.003e+00) (-1.919e-01 1.320e-02 2.516e-02) (0.000e+00 0.000e+00 0.000e+00)) ((-9.133e-01 -2.358e+00 -5.740e+00) (8.928e-03 -9.093e-03 4.439e-02) (0.000e+00 0.000e+00 0.000e+00))
115        	((-8.830e+00 1.216e+01 -1.019e+00) (-1.936e-01 1.346e-02 2.471e-02) (0.000e+00 0.000e+00 0.000e+00)) ((-9.497e-01 -2.347e+00 -5.786e+00) (8.798e-03 -9.394e-03 4.460e-02) (0.000e+00 0.000e+00 0.000e+00))
116        	((-8.776e+00 1.229e+01 -1.013e+00) (-1.955e-01 1.375e-02 2.434e-02) (0.000e+00 0.000e+00 0.000e+00)) ((-9.822e-01 -2.330e+00 -5.811e+00) (8.679e-03 -9.672e-03 4.483e-02) (0.000e+00 0.000e+00 0.000e+00))
117        	((-8.722e+00 1.237e+01 -9.874e-01) (-1.975e-01 1.406e-02 2.410e-02) (0.000e+00 0.000e+00 0.000e+00)) ((-1.007e+00 -2.312e+00 -5.819e+00) (8.589e-03 -9.899e-03 4.508e-02) (0.000e+00 0.000e+00 0.000e+00))
118        	((-8.672e+00 1.242e+01 -9.424e-01) (-1.997e-01 1.431e-02 2.392e-02) (0.000e+00 0.000e+00 0.000e+00)) ((-1.022e+00 -2.293e+00 -5.816e+00) (8.510e-03 -1.016e-02 4.544e-02) (0.000e+00 0.000e+00 0.000e+00))
119        	((-8.637e+00 1.245e+01 -8.942e-01) (-2.022e-01 1.452e-02 2.373e-02) (0.000e+00 0.000e+00 0.000e+00)) ((-1.028e+00 -2.278e+00 -5.811e+00) (8.442e-03 -1.046e-02 4.587e-02) (0.000e+00 0.000e+00 0.000e+00))
120        	((-8.609e+00 1.246e+01 -8.430e-01) (-2.047e-01 1.478e-02 2.370e-02) (0.000e+00 0.000e+00 0.000e+00)) ((-1.029e+00 -2.264e+00 -5.803e+00) (8.407e-03 -1.066e-02 4.626e-02) (0.000e+00 0.000e+00 0.000e+00))
121        	((-8.592e+00 1.247e+01 -7.950e-01) (-2.072e-01 1.500e-02 2.366e-02) (0.000e+00 0.000e+00 0.000e+00)) ((-1.025e+00 -2.253e+00 -5.791e+00) (8.386e-03 -1.091e-02 4.668e-02) (0.000e+00 0.000e+00 0.000e+00))
122        	((-8.581e+00 1.246e+01 -7.501e-01) (-2.097e-01 1.519e-02 2.366e-02) (0.000e+00 0.000e+00 0.000e+00)) ((-1.018e+00 -2.244e+00 -5.775e+00) (8.381e-03 -1.114e-02 4.713e-02) (0.000e+00 0.000e+00 0.000e+00))
123        	((-8.573e+00 1.243e+01 -7.089e-01) (-2.122e-01 1.535e-02 2.371e-02) (0.000e+00 0.000e+00 0.000e+00)) ((-1.008e+00 -2.238e+00 -5.752e+00) (8.399e-03 -1.133e-02 4.758e-02) (0.000e+00 0.000e+00 0.000e+00))
124        	((-8.562e+00 1.239e+01 -6.700e-01) (-2.146e-01 1.548e-02 2.386e-02) (0.000e+00 0.000e+00 0.000e+00)) ((-9.958e-01 -2.235e+00 -5.725e+00) (8.446e-03 -1.143e-02 4.802e-02) (0.000e+00 0.000e+00 0.000e+00))
125        	((-8.546e+00 1.234e+01 -6.317e-01) (-2.169e-01 1.565e-02 2.402e-02) (0.000e+00 0.000e+00 0.000e+00)) ((-9.816e-01 -2.235e+00 -5.693e+00) (8.485e-03 -1.152e-02 4.842e-02) (0.000e+00 0.000e+00 0.000e+00))
126        	((-8.524e+00 1.229e+01 -5.896e-01) (-2.192e-01 1.581e-02 2.419e-02) (0.000e+00 0.000e+00 0.000e+00)) ((-9.659e-01 -2.238e+00 -5.657e+00) (8.536e-03 -1.157e-02 4.880e-02) (0.000e+00 0.000e+00 0.000e+00))
127        	((-8.506e+00 1.222e+01 -5.414e-01) (-2.214e-01 1.597e-02 2.445e-02) (0.000e+00 0.000e+00 0.000e+00)) ((-9.499e-01 -2.247e+00 -5.623e+00) (8.608e-03 -1.155e-02 4.916e-02) (0.000e+00 0.000e+00 0.000e+00))
128        	((-8.494e+00 1.216e+01 -4.842e-01) (-2.237e-01 1.615e-02 2.471e-02) (0.000e+00 0.000e+00 0.000e+00)) ((-9.352e-01 -2.261e+00 -5.600e+00) (8.674e-03 -1.154e-02 4.950e-02) (0.000e+00 0.000e+00 0.000e+00))
129        	((-8.491e+00 1.210e+01 -4.189e-01) (-2.259e-01 1.632e-02 2.496e-02) (0.000e+00 0.000e+00 0.000e+00)) ((-9.233e-01 -2.281e+00 -5.596e+00) (8.735e-03 -1.155e-02 4.983e-02) (0.000e+00 0.000e+00 0.000e+00))
130        	((-8.494e+00 1.203e+01 -3.478e-01) (-2.280e-01 1.653e-02 2.509e-02) (0.000e+00 0.000e+00 0.000e+00)) ((-9.153e-01 -2.305e+00 -5.614e+00) (8.748e-03 -1.168e-02 5.009e-02) (0.000e+00 0.000e+00 0.000e+00))
131        	((-8.503e+00 1.196e+01 -2.776e-01) (-2.300e-01 1.672e-02 2.520e-02) (0.000e+00 0.000e+00 0.000e+00)) ((-9.111e-01 -2.332e+00 -5.651e+00) (8.752e-03 -1.183e-02 5.033e-02) (0.000e+00 0.000e+00 0.000e+00))
132        	((-8.517e+00 1.189e+01 -2.150e-01) (-2.318e-01 1.679e-02 2.535e-02) (0.000e+00 0.000e+00 0.000e+00)) ((-9.098e-01 -2.362e+00 -5.698e+00) (8.790e-03 -1.195e-02 5.061e-02) (0.000e+00 0.000e+00 0.000e+00))
133        	((-8.542e+00 1.180e+01 -1.667e-01) (-2.337e-01 1.686e-02 2.566e-02) (0.000e+00 0.000e+00 0.000e+00)) ((-9.098e-01 -2.394e+00 -5.744e+00) (8.876e-03 -1.200e-02 5.092e-02) (0.000e+00 0.000e+00 0.000e+00))
134        	((-8.584e+00 1.170e+01 -1.353e-01) (-2.356e-01 1.695e-02 2.600e-02) (0.000e+00 0.000e+00 0.000e+00)) ((-9.096e-01 -2.427e+00 -5.781e+00) (8.975e-03 -1.204e-02 5.119e-02) (0.000e+00 0.000e+00 0.000e+00))
135        	((-8.648e+00 1.160e+01 -1.156e-01) (-2.376e-01 1.704e-02 2.645e-02) (0.000e+00 0.000e+00 0.000e+00)) ((-9.079e-01 -2.460e+00 -5.804e+00) (9.114e-03 -1.207e-02 5.149e-02) (0.000e+00 0.000e+00 0.000e+00))
136        	((-8.736e+00 1.148e+01 -1.008e-01) (-2.395e-01 1.712e-02 2.702e-02) (0.000e+00 0.000e+00 0.000e+00)) ((-9.042e-01 -2.493e+00 -5.811e+00) (9.298e-03 -1.206e-02 5.178e-02) (0.000e+00 0.000e+00 0.000e+00))
137        	((-8.846e+00 1.135e+01 -8.397e-02) (-2.415e-01 1.729e-02 2.763e-02) (0.000e+00 0.000e+00 0.000e+00)) ((-8.979e-01 -2.521e+00 -5.804e+00) (9.479e-03 -1.206e-02 5.202e-02) (0.000e+00 0.000e+00 0.000e+00))
138        	((-8.973e+00 1.122e+01 -6.081e-02) (-2.433e-01 1.744e-02 2.845e-02) (0.000e+00 0.000e+00 0.000e+00)) ((-8.892e-01 -2.545e+00 -5.781e+00) (9.723e-03 -1.193e-02 5.225e-02) (0.000e+00 0.000e+00 0.000e+00))