# Forces   
# CofR     : (0.000e+00 0.000e+00 0.000e+00)
# Time     forces(pressure viscous porous)	moments(pressure viscous porous)
1          	((-3.524e+02 -5.740e+01 -3.705e+02) (-3.598e-01 -3.476e-03 6.355e-02) (0.000e+00 0.000e+00 0.000e+00)) ((-6.756e+01 -9.014e+02 1.823e+02) (1.619e-02 -1.316e-01 1.114e-01) (0.000e+00 0.000e+00 0.000e+00))
2          	((-1.368e+02 -1.813e+01 -1.792e+02) (-2.794e-01 -2.418e-03 9.891e-02) (0.000e+00 0.000e+00 0.000e+00)) ((-3.860e+01 -4.043e+02 6.228e+01) (2.364e-02 -3.776e-03 9.152e-02) (0.000e+00 0.000e+00 0.000e+00))
3          	((-7.379e+01 -1.294e+01 -1.186e+02) (-2.754e-01 -1.283e-03 1.111e-01) (0.000e+00 0.000e+00 0.000e+00)) ((-2.525e+01 -2.524e+02 3.800e+01) (2.567e-02 2.050e-02 8.798e-02) (0.000e+00 0.000e+00 0.000e+00))
4          	((-3.810e+01 -1.291e+01 -8.470e+01) (-2.662e-01 -1.486e-03 1.174e-01) (0.000e+00 0.000e+00 0.000e+00)) ((-1.642e+01 -1.667e+02 2.918e+01) (2.746e-02 4.066e-02 8.604e-02) (0.000e+00 0.000e+00 0.000e+00))
5          	((-3.070e+01 -1.674e+01 -7.636e+01) (-2.631e-01 -1.847e-03 1.185e-01) (0.000e+00 0.000e+00 0.000e+00)) ((-1.247e+01 -1.469e+02 3.374e+01) (2.825e-02 4.637e-02 8.574e-02) (0.000e+00 0.000e+00 0.000e+00))
6          	((-3.167e+01 -2.159e+01 -7.656e+01) (-2.640e-01 -2.114e-03 1.204e-01) (0.000e+00 0.000e+00 0.000e+00)) ((-1.028e+01 -1.479e+02 4.189e+01) (2.903e-02 4.944e-02 8.607e-02) (0.000e+00 0.000e+00 0.000e+00))
7          	((-3.694e+01 -2.670e+01 -8.228e+01) (-2.650e-01 -2.307e-03 1.198e-01) (0.000e+00 0.000e+00 0.000e+00)) ((-9.514e+00 -1.616e+02 5.139e+01) (2.919e-02 4.773e-02 8.629e-02) (0.000e+00 0.000e+00 0.000e+00))
8          	((-4.083e+01 -2.946e+01 -8.721e+01) (-2.646e-01 -2.257e-03 1.182e-01) (0.000e+00 0.000e+00 0.000e+00)) ((-9.732e+00 -1.729e+02 5.652e+01) (2.891e-02 4.502e-02 8.585e-02) (0.000e+00 0.000e+00 0.000e+00))
9          	((-4.496e+01 -3.195e+01 -9.344e+01) (-2.640e-01 -2.097e-03 1.164e-01) (0.000e+00 0.000e+00 0.000e+00)) ((-1.046e+01 -1.864e+02 6.113e+01) (2.851e-02 4.210e-02 8.523e-02) (0.000e+00 0.000e+00 0.000e+00))
10         	((-4.649e+01 -3.246e+01 -9.676e+01) (-2.635e-01 -1.862e-03 1.153e-01) (0.000e+00 0.000e+00 0.000e+00)) ((-1.127e+01 -1.930e+02 6.182e+01) (2.819e-02 4.006e-02 8.452e-02) (0.000e+00 0.000e+00 0.000e+00))
11         	((-4.779e+01 -3.251e+01 -1.002e+02) (-2.639e-01 -1.632e-03 1.143e-01) (0.000e+00 0.000e+00 0.000e+00)) ((-1.227e+01 -1.996e+02 6.162e+01) (2.789e-02 3.744e-02 8.406e-02) (0.000e+00 0.000e+00 0.000e+00))
12         	((-4.843e+01 -3.215e+01 -1.032e+02) (-2.640e-01 -1.416e-03 1.133e-01) (0.000e+00 0.000e+00 0.000e+00)) ((-1.322e+01 -2.049e+02 6.064e+01) (2.760e-02 3.522e-02 8.359e-02) (0.000e+00 0.000e+00 0.000e+00))
13         	((-4.838e+01 -3.140e+01 -1.055e+02) (-2.636e-01 -1.212e-03 1.133e-01) (0.000e+00 0.000e+00 0.000e+00)) ((-1.415e+01 -2.086e+02 5.888e+01) (2.754e-02 3.522e-02 8.302e-02) (0.000e+00 0.000e+00 0.000e+00))
14         	((-4.779e+01 -3.032e+01 -1.074e+02) (-2.615e-01 -1.044e-03 1.149e-01) (0.000e+00 0.000e+00 0.000e+00)) ((-1.508e+01 -2.110e+02 5.650e+01) (2.788e-02 3.981e-02 8.215e-02) (0.000e+00 0.000e+00 0.000e+00))
15         	((-4.682e+01 -2.901e+01 -1.088e+02) (-2.588e-01 -9.079e-04 1.167e-01) (0.000e+00 0.000e+00 0.000e+00)) ((-1.598e+01 -2.122e+02 5.371e+01) (2.830e-02 4.551e-02 8.112e-02) (0.000e+00 0.000e+00 0.000e+00))
16         	((-4.570e+01 -2.745e+01 -1.097e+02) (-2.553e-01 -8.222e-04 1.179e-01) (0.000e+00 0.000e+00 0.000e+00)) ((-1.690e+01 -2.127e+02 5.051e+01) (2.859e-02 5.081e-02 8.002e-02) (0.000e+00 0.000e+00 0.000e+00))
17         	((-4.459e+01 -2.579e+01 -1.103e+02) (-2.519e-01 -7.339e-04 1.184e-01) (0.000e+00 0.000e+00 0.000e+00)) ((-1.779e+01 -2.126e+02 4.723e+01) (2.869e-02 5.469e-02 7.888e-02) (0.000e+00 0.000e+00 0.000e+00))
18         	((-4.361e+01 -2.419e+01 -1.109e+02) (-2.482e-01 -6.470e-04 1.183e-01) (0.000e+00 0.000e+00 0.000e+00)) ((-1.860e+01 -2.126e+02 4.419e+01) (2.864e-02 5.766e-02 7.767e-02) (0.000e+00 0.000e+00 0.000e+00))
19         	((-4.283e+01 -2.273e+01 -1.115e+02) (-2.439e-01 -5.314e-04 1.180e-01) (0.000e+00 0.000e+00 0.000e+00)) ((-1.932e+01 -2.128e+02 4.152e+01) (2.849e-02 6.059e-02 7.620e-02) (0.000e+00 0.000e+00 0.000e+00))
20         	((-4.241e+01 -2.192e+01 -1.123e+02) (-2.394e-01 -4.586e-04 1.174e-01) (0.000e+00 0.000e+00 0.000e+00)) ((-1.977e+01 -2.137e+02 4.012e+01) (2.828e-02 6.350e-02 7.481e-02) (0.000e+00 0.000e+00 0.000e+00))
21         	((-4.208e+01 -2.092e+01 -1.131e+02) (-2.368e-01 -3.788e-04 1.165e-01) (0.000e+00 0.000e+00 0.000e+00)) ((-2.033e+01 -2.146e+02 3.852e+01) (2.807e-02 6.400e-02 7.395e-02) (0.000e+00 0.000e+00 0.000e+00))
22         	((-4.209e+01 -2.098e+01 -1.140e+02) (-2.361e-01 -2.863e-04 1.155e-01) (0.000e+00 0.000e+00 0.000e+00)) ((-2.044e+01 -2.160e+02 3.884e+01) (2.783e-02 6.293e-02 7.346e-02) (0.000e+00 0.000e+00 0.000e+00))
23         	((-4.237e+01 -2.113e+01 -1.152e+02) (-2.360e-01 -1.320e-04 1.147e-01) (0.000e+00 0.000e+00 0.000e+00)) ((-2.061e+01 -2.181e+02 3.951e+01) (2.763e-02 6.152e-02 7.309e-02) (0.000e+00 0.000e+00 0.000e+00))
24         	((-4.263e+01 -2.104e+01 -1.161e+02) (-2.369e-01 1.527e-04 1.139e-01) (0.000e+00 0.000e+00 0.000e+00)) ((-2.090e+01 -2.199e+02 3.972e+01) (2.740e-02 5.985e-02 7.279e-02) (0.000e+00 0.000e+00 0.000e+00))
25         	((-4.321e+01 -2.077e+01 -1.174e+02) (-2.384e-01 5.933e-04 1.136e-01) (0.000e+00 0.000e+00 0.000e+00)) ((-2.138e+01 -2.224e+02 3.982e+01) (2.721e-02 5.854e-02 7.241e-02) (0.000e+00 0.000e+00 0.000e+00))
26         	((-4.353e+01 -2.034e+01 -1.183e+02) (-2.399e-01 9.609e-04 1.134e-01) (0.000e+00 0.000e+00 0.000e+00)) ((-2.183e+01 -2.241e+02 3.951e+01) (2.705e-02 5.757e-02 7.219e-02) (0.000e+00 0.000e+00 0.000e+00))
27         	((-4.403e+01 -1.986e+01 -1.193e+02) (-2.414e-01 1.237e-03 1.136e-01) (0.000e+00 0.000e+00 0.000e+00)) ((-2.241e+01 -2.262e+02 3.930e+01) (2.698e-02 5.721e-02 7.212e-02) (0.000e+00 0.000e+00 0.000e+00))
28         	((-4.424e+01 -1.951e+01 -1.201e+02) (-2.427e-01 1.516e-03 1.140e-01) (0.000e+00 0.000e+00 0.000e+00)) ((-2.281e+01 -2.275e+02 3.914e+01) (2.694e-02 5.751e-02 7.198e-02) (0.000e+00 0.000e+00 0.000e+00))
29         	((-4.451e+01 -1.912e+01 -1.209e+02) (-2.433e-01 1.771e-03 1.146e-01) (0.000e+00 0.000e+00 0.000e+00)) ((-2.331e+01 -2.290e+02 3.905e+01) (2.696e-02 5.872e-02 7.173e-02) (0.000e+00 0.000e+00 0.000e+00))
30         	((-4.459e+01 -1.887e+01 -1.214e+02) (-2.436e-01 2.092e-03 1.151e-01) (0.000e+00 0.000e+00 0.000e+00)) ((-2.362e+01 -2.298e+02 3.899e+01) (2.691e-02 6.009e-02 7.133e-02) (0.000e+00 0.000e+00 0.000e+00))
31         	((-4.463e+01 -1.870e+01 -1.219e+02) (-2.436e-01 2.422e-03 1.154e-01) (0.000e+00 0.000e+00 0.000e+00)) ((-2.395e+01 -2.306e+02 3.914e+01) (2.679e-02 6.152e-02 7.080e-02) (0.000e+00 0.000e+00 0.000e+00))
32         	((-4.462e+01 -1.842e+01 -1.221e+02) (-2.433e-01 2.837e-03 1.154e-01) (0.000e+00 0.000e+00 0.000e+00)) ((-2.426e+01 -2.310e+02 3.888e+01) (2.650e-02 6.252e-02 7.006e-02) (0.000e+00 0.000e+00 0.000e+00))
33         	((-4.453e+01 -1.765e+01 -1.222e+02) (-2.429e-01 3.195e-03 1.154e-01) (0.000e+00 0.000e+00 0.000e+00)) ((-2.488e+01 -2.310e+02 3.777e+01) (2.620e-02 6.352e-02 6.935e-02) (0.000e+00 0.000e+00 0.000e+00))
34         	((-4.451e+01 -1.681e+01 -1.223e+02) (-2.430e-01 3.516e-03 1.154e-01) (0.000e+00 0.000e+00 0.000e+00)) ((-2.550e+01 -2.310e+02 3.641e+01) (2.591e-02 6.391e-02 6.885e-02) (0.000e+00 0.000e+00 0.000e+00))
35         	((-4.443e+01 -1.506e+01 -1.220e+02) (-2.436e-01 3.837e-03 1.153e-01) (0.000e+00 0.000e+00 0.000e+00)) ((-2.664e+01 -2.306e+02 3.347e+01) (2.561e-02 6.376e-02 6.847e-02) (0.000e+00 0.000e+00 0.000e+00))
36         	((-4.456e+01 -1.395e+01 -1.221e+02) (-2.446e-01 4.156e-03 1.152e-01) (0.000e+00 0.000e+00 0.000e+00)) ((-2.742e+01 -2.308e+02 3.160e+01) (2.528e-02 6.307e-02 6.819e-02) (0.000e+00 0.000e+00 0.000e+00))
37         	((-4.459e+01 -1.239e+01 -1.219e+02) (-2.458e-01 4.479e-03 1.152e-01) (0.000e+00 0.000e+00 0.000e+00)) ((-2.846e+01 -2.305e+02 2.900e+01) (2.495e-02 6.223e-02 6.798e-02) (0.000e+00 0.000e+00 0.000e+00))
38         	((-4.482e+01 -1.190e+01 -1.219e+02) (-2.473e-01 4.743e-03 1.152e-01) (0.000e+00 0.000e+00 0.000e+00)) ((-2.889e+01 -2.307e+02 2.830e+01) (2.468e-02 6.127e-02 6.798e-02) (0.000e+00 0.000e+00 0.000e+00))
39         	((-4.510e+01 -1.158e+01 -1.218e+02) (-2.489e-01 5.002e-03 1.153e-01) (0.000e+00 0.000e+00 0.000e+00)) ((-2.922e+01 -2.308e+02 2.805e+01) (2.446e-02 6.044e-02 6.808e-02) (0.000e+00 0.000e+00 0.000e+00))
40         	((-4.543e+01 -1.172e+01 -1.217e+02) (-2.505e-01 5.276e-03 1.155e-01) (0.000e+00 0.000e+00 0.000e+00)) ((-2.923e+01 -2.310e+02 2.856e+01) (2.423e-02 5.969e-02 6.819e-02) (0.000e+00 0.000e+00 0.000e+00))
41         	((-4.584e+01 -1.196e+01 -1.216e+02) (-2.520e-01 5.555e-03 1.158e-01) (0.000e+00 0.000e+00 0.000e+00)) ((-2.919e+01 -2.312e+02 2.933e+01) (2.403e-02 5.921e-02 6.826e-02) (0.000e+00 0.000e+00 0.000e+00))
42         	((-4.611e+01 -1.190e+01 -1.214e+02) (-2.533e-01 5.864e-03 1.161e-01) (0.000e+00 0.000e+00 0.000e+00)) ((-2.926e+01 -2.310e+02 2.945e+01) (2.383e-02 5.892e-02 6.823e-02) (0.000e+00 0.000e+00 0.000e+00))
43         	((-4.638e+01 -1.174e+01 -1.211e+02) (-2.544e-01 6.150e-03 1.164e-01) (0.000e+00 0.000e+00 0.000e+00)) ((-2.939e+01 -2.307e+02 2.940e+01) (2.370e-02 5.890e-02 6.819e-02) (0.000e+00 0.000e+00 0.000e+00))
44         	((-4.660e+01 -1.155e+01 -1.207e+02) (-2.554e-01 6.438e-03 1.169e-01) (0.000e+00 0.000e+00 0.000e+00)) ((-2.952e+01 -2.302e+02 2.923e+01) (2.361e-02 5.908e-02 6.813e-02) (0.000e+00 0.000e+00 0.000e+00))
45         	((-4.679e+01 -1.144e+01 -1.202e+02) (-2.564e-01 6.750e-03 1.175e-01) (0.000e+00 0.000e+00 0.000e+00)) ((-2.961e+01 -2.296e+02 2.915e+01) (2.355e-02 5.944e-02 6.803e-02) (0.000e+00 0.000e+00 0.000e+00))
46         	((-4.695e+01 -1.144e+01 -1.198e+02) (-2.575e-01 7.076e-03 1.181e-01) (0.000e+00 0.000e+00 0.000e+00)) ((-2.965e+01 -2.290e+02 2.924e+01) (2.352e-02 5.991e-02 6.792e-02) (0.000e+00 0.000e+00 0.000e+00))
47         	((-4.706e+01 -1.157e+01 -1.195e+02) (-2.587e-01 7.394e-03 1.188e-01) (0.000e+00 0.000e+00 0.000e+00)) ((-2.962e+01 -2.285e+02 2.949e+01) (2.353e-02 6.035e-02 6.785e-02) (0.000e+00 0.000e+00 0.000e+00))
48         	((-4.713e+01 -1.179e+01 -1.191e+02) (-2.599e-01 7.696e-03 1.196e-01) (0.000e+00 0.000e+00 0.000e+00)) ((-2.955e+01 -2.280e+02 2.987e+01) (2.356e-02 6.071e-02 6.784e-02) (0.000e+00 0.000e+00 0.000e+00))
49         	((-4.717e+01 -1.207e+01 -1.189e+02) (-2.612e-01 7.994e-03 1.202e-01) (0.000e+00 0.000e+00 0.000e+00)) ((-2.946e+01 -2.275e+02 3.033e+01) (2.359e-02 6.098e-02 6.784e-02) (0.000e+00 0.000e+00 0.000e+00))
50         	((-4.717e+01 -1.238e+01 -1.186e+02) (-2.623e-01 8.283e-03 1.208e-01) (0.000e+00 0.000e+00 0.000e+00)) ((-2.936e+01 -2.271e+02 3.083e+01) (2.362e-02 6.115e-02 6.786e-02) (0.000e+00 0.000e+00 0.000e+00))
51         	((-4.715e+01 -1.273e+01 -1.185e+02) (-2.634e-01 8.557e-03 1.214e-01) (0.000e+00 0.000e+00 0.000e+00)) ((-2.926e+01 -2.268e+02 3.137e+01) (2.363e-02 6.129e-02 6.786e-02) (0.000e+00 0.000e+00 0.000e+00))
52         	((-4.711e+01 -1.309e+01 -1.184e+02) (-2.643e-01 8.852e-03 1.218e-01) (0.000e+00 0.000e+00 0.000e+00)) ((-2.916e+01 -2.265e+02 3.193e+01) (2.363e-02 6.135e-02 6.782e-02) (0.000e+00 0.000e+00 0.000e+00))
53         	((-4.705e+01 -1.346e+01 -1.184e+02) (-2.651e-01 9.153e-03 1.222e-01) (0.000e+00 0.000e+00 0.000e+00)) ((-2.907e+01 -2.264e+02 3.248e+01) (2.360e-02 6.137e-02 6.774e-02) (0.000e+00 0.000e+00 0.000e+00))
54         	((-4.698e+01 -1.382e+01 -1.184e+02) (-2.658e-01 9.454e-03 1.224e-01) (0.000e+00 0.000e+00 0.000e+00)) ((-2.899e+01 -2.264e+02 3.303e+01) (2.354e-02 6.123e-02 6.765e-02) (0.000e+00 0.000e+00 0.000e+00))
55         	((-4.691e+01 -1.418e+01 -1.185e+02) (-2.664e-01 9.749e-03 1.224e-01) (0.000e+00 0.000e+00 0.000e+00)) ((-2.892e+01 -2.265e+02 3.357e+01) (2.344e-02 6.094e-02 6.753e-02) (0.000e+00 0.000e+00 0.000e+00))
56         	((-4.686e+01 -1.454e+01 -1.187e+02) (-2.670e-01 1.005e-02 1.223e-01) (0.000e+00 0.000e+00 0.000e+00)) ((-2.885e+01 -2.266e+02 3.412e+01) (2.330e-02 6.042e-02 6.740e-02) (0.000e+00 0.000e+00 0.000e+00))
57         	((-4.681e+01 -1.488e+01 -1.189e+02) (-2.676e-01 1.032e-02 1.222e-01) (0.000e+00 0.000e+00 0.000e+00)) ((-2.879e+01 -2.269e+02 3.464e+01) (2.314e-02 5.968e-02 6.735e-02) (0.000e+00 0.000e+00 0.000e+00))
58         	((-4.678e+01 -1.519e+01 -1.191e+02) (-2.683e-01 1.059e-02 1.219e-01) (0.000e+00 0.000e+00 0.000e+00)) ((-2.874e+01 -2.272e+02 3.512e+01) (2.296e-02 5.871e-02 6.731e-02) (0.000e+00 0.000e+00 0.000e+00))
59         	((-4.680e+01 -1.551e+01 -1.194e+02) (-2.692e-01 1.080e-02 1.216e-01) (0.000e+00 0.000e+00 0.000e+00)) ((-2.872e+01 -2.276e+02 3.561e+01) (2.278e-02 5.755e-02 6.740e-02) (0.000e+00 0.000e+00 0.000e+00))
60         	((-4.680e+01 -1.562e+01 -1.196e+02) (-2.702e-01 1.100e-02 1.212e-01) (0.000e+00 0.000e+00 0.000e+00)) ((-2.874e+01 -2.279e+02 3.576e+01) (2.260e-02 5.625e-02 6.754e-02) (0.000e+00 0.000e+00 0.000e+00))
61         	((-4.686e+01 -1.575e+01 -1.199e+02) (-2.712e-01 1.115e-02 1.209e-01) (0.000e+00 0.000e+00 0.000e+00)) ((-2.881e+01 -2.285e+02 3.593e+01) (2.246e-02 5.488e-02 6.776e-02) (0.000e+00 0.000e+00 0.000e+00))
62         	((-4.692e+01 -1.575e+01 -1.202e+02) (-2.723e-01 1.126e-02 1.207e-01) (0.000e+00 0.000e+00 0.000e+00)) ((-2.889e+01 -2.289e+02 3.590e+01) (2.236e-02 5.352e-02 6.804e-02) (0.000e+00 0.000e+00 0.000e+00))
63         	((-4.708e+01 -1.566e+01 -1.206e+02) (-2.733e-01 1.134e-02 1.205e-01) (0.000e+00 0.000e+00 0.000e+00)) ((-2.907e+01 -2.298e+02 3.569e+01) (2.230e-02 5.220e-02 6.835e-02) (0.000e+00 0.000e+00 0.000e+00))
64         	((-4.720e+01 -1.548e+01 -1.210e+02) (-2.744e-01 1.138e-02 1.204e-01) (0.000e+00 0.000e+00 0.000e+00)) ((-2.923e+01 -2.304e+02 3.533e+01) (2.229e-02 5.104e-02 6.870e-02) (0.000e+00 0.000e+00 0.000e+00))
65         	((-4.737e+01 -1.518e+01 -1.213e+02) (-2.753e-01 1.140e-02 1.205e-01) (0.000e+00 0.000e+00 0.000e+00)) ((-2.945e+01 -2.312e+02 3.476e+01) (2.235e-02 5.012e-02 6.901e-02) (0.000e+00 0.000e+00 0.000e+00))
66         	((-4.758e+01 -1.479e+01 -1.218e+02) (-2.760e-01 1.142e-02 1.208e-01) (0.000e+00 0.000e+00 0.000e+00)) ((-2.972e+01 -2.320e+02 3.404e+01) (2.249e-02 4.953e-02 6.923e-02) (0.000e+00 0.000e+00 0.000e+00))
67         	((-4.781e+01 -1.433e+01 -1.221e+02) (-2.766e-01 1.141e-02 1.212e-01) (0.000e+00 0.000e+00 0.000e+00)) ((-2.999e+01 -2.328e+02 3.322e+01) (2.271e-02 4.923e-02 6.946e-02) (0.000e+00 0.000e+00 0.000e+00))
68         	((-4.805e+01 -1.383e+01 -1.224e+02) (-2.774e-01 1.129e-02 1.218e-01) (0.000e+00 0.000e+00 0.000e+00)) ((-3.025e+01 -2.335e+02 3.234e+01) (2.304e-02 4.922e-02 6.993e-02) (0.000e+00 0.000e+00 0.000e+00))
69         	((-4.829e+01 -1.328e+01 -1.227e+02) (-2.784e-01 1.101e-02 1.227e-01) (0.000e+00 0.000e+00 0.000e+00)) ((-3.050e+01 -2.342e+02 3.140e+01) (2.354e-02 4.956e-02 7.073e-02) (0.000e+00 0.000e+00 0.000e+00))
70         	((-4.853e+01 -1.265e+01 -1.229e+02) (-2.790e-01 1.066e-02 1.238e-01) (0.000e+00 0.000e+00 0.000e+00)) ((-3.075e+01 -2.347e+02 3.035e+01) (2.416e-02 5.040e-02 7.150e-02) (0.000e+00 0.000e+00 0.000e+00))
71         	((-4.876e+01 -1.204e+01 -1.230e+02) (-2.790e-01 1.034e-02 1.250e-01) (0.000e+00 0.000e+00 0.000e+00)) ((-3.097e+01 -2.350e+02 2.935e+01) (2.483e-02 5.172e-02 7.191e-02) (0.000e+00 0.000e+00 0.000e+00))
72         	((-4.898e+01 -1.151e+01 -1.230e+02) (-2.783e-01 1.006e-02 1.263e-01) (0.000e+00 0.000e+00 0.000e+00)) ((-3.112e+01 -2.352e+02 2.848e+01) (2.549e-02 5.336e-02 7.196e-02) (0.000e+00 0.000e+00 0.000e+00))
73         	((-4.919e+01 -1.111e+01 -1.229e+02) (-2.779e-01 9.758e-03 1.275e-01) (0.000e+00 0.000e+00 0.000e+00)) ((-3.119e+01 -2.353e+02 2.787e+01) (2.612e-02 5.474e-02 7.217e-02) (0.000e+00 0.000e+00 0.000e+00))
74         	((-4.939e+01 -1.085e+01 -1.227e+02) (-2.786e-01 9.534e-03 1.287e-01) (0.000e+00 0.000e+00 0.000e+00)) ((-3.118e+01 -2.351e+02 2.747e+01) (2.667e-02 5.561e-02 7.264e-02) (0.000e+00 0.000e+00 0.000e+00))
75         	((-4.956e+01 -1.069e+01 -1.224e+02) (-2.799e-01 9.364e-03 1.298e-01) (0.000e+00 0.000e+00 0.000e+00)) ((-3.111e+01 -2.348e+02 2.726e+01) (2.718e-02 5.615e-02 7.329e-02) (0.000e+00 0.000e+00 0.000e+00))
76         	((-4.972e+01 -1.065e+01 -1.221e+02) (-2.821e-01 9.261e-03 1.309e-01) (0.000e+00 0.000e+00 0.000e+00)) ((-3.098e+01 -2.343e+02 2.724e+01) (2.769e-02 5.645e-02 7.426e-02) (0.000e+00 0.000e+00 0.000e+00))
77         	((-4.984e+01 -1.066e+01 -1.216e+02) (-2.853e-01 9.433e-03 1.316e-01) (0.000e+00 0.000e+00 0.000e+00)) ((-3.080e+01 -2.336e+02 2.730e+01) (2.793e-02 5.577e-02 7.526e-02) (0.000e+00 0.000e+00 0.000e+00))
78         	((-4.993e+01 -1.067e+01 -1.209e+02) (-2.897e-01 9.814e-03 1.317e-01) (0.000e+00 0.000e+00 0.000e+00)) ((-3.060e+01 -2.327e+02 2.735e+01) (2.779e-02 5.365e-02 7.642e-02) (0.000e+00 0.000e+00 0.000e+00))
79         	((-4.999e+01 -1.054e+01 -1.202e+02) (-2.951e-01 9.825e-03 1.310e-01) (0.000e+00 0.000e+00 0.000e+00)) ((-3.043e+01 -2.317e+02 2.719e+01) (2.746e-02 5.003e-02 7.863e-02) (0.000e+00 0.000e+00 0.000e+00))
80         	((-5.002e+01 -1.024e+01 -1.195e+02) (-3.006e-01 9.688e-03 1.299e-01) (0.000e+00 0.000e+00 0.000e+00)) ((-3.031e+01 -2.304e+02 2.674e+01) (2.696e-02 4.562e-02 8.111e-02) (0.000e+00 0.000e+00 0.000e+00))
81         	((-5.001e+01 -9.730e+00 -1.186e+02) (-3.062e-01 9.556e-03 1.292e-01) (0.000e+00 0.000e+00 0.000e+00)) ((-3.025e+01 -2.290e+02 2.593e+01) (2.664e-02 4.180e-02 8.364e-02) (0.000e+00 0.000e+00 0.000e+00))
82         	((-4.996e+01 -9.025e+00 -1.176e+02) (-3.115e-01 9.435e-03 1.289e-01) (0.000e+00 0.000e+00 0.000e+00)) ((-3.027e+01 -2.274e+02 2.479e+01) (2.646e-02 3.870e-02 8.599e-02) (0.000e+00 0.000e+00 0.000e+00))
83         	((-4.987e+01 -8.151e+00 -1.166e+02) (-3.163e-01 9.270e-03 1.291e-01) (0.000e+00 0.000e+00 0.000e+00)) ((-3.036e+01 -2.257e+02 2.335e+01) (2.653e-02 3.661e-02 8.826e-02) (0.000e+00 0.000e+00 0.000e+00))
84         	((-4.973e+01 -7.142e+00 -1.156e+02) (-3.208e-01 9.130e-03 1.295e-01) (0.000e+00 0.000e+00 0.000e+00)) ((-3.049e+01 -2.238e+02 2.167e+01) (2.667e-02 3.494e-02 9.030e-02) (0.000e+00 0.000e+00 0.000e+00))
85         	((-4.953e+01 -6.027e+00 -1.145e+02) (-3.250e-01 9.009e-03 1.299e-01) (0.000e+00 0.000e+00 0.000e+00)) ((-3.068e+01 -2.219e+02 1.982e+01) (2.682e-02 3.336e-02 9.219e-02) (0.000e+00 0.000e+00 0.000e+00))
86         	((-4.929e+01 -4.876e+00 -1.134e+02) (-3.289e-01 8.916e-03 1.304e-01) (0.000e+00 0.000e+00 0.000e+00)) ((-3.088e+01 -2.200e+02 1.791e+01) (2.697e-02 3.188e-02 9.395e-02) (0.000e+00 0.000e+00 0.000e+00))
87         	((-4.899e+01 -3.820e+00 -1.123e+02) (-3.330e-01 8.902e-03 1.307e-01) (0.000e+00 0.000e+00 0.000e+00)) ((-3.105e+01 -2.179e+02 1.617e+01) (2.706e-02 3.016e-02 9.562e-02) (0.000e+00 0.000e+00 0.000e+00))
88         	((-4.866e+01 -2.965e+00 -1.113e+02) (-3.372e-01 9.015e-03 1.307e-01) (0.000e+00 0.000e+00 0.000e+00)) ((-3.113e+01 -2.159e+02 1.477e+01) (2.701e-02 2.802e-02 9.716e-02) (0.000e+00 0.000e+00 0.000e+00))
89         	((-4.831e+01 -2.379e+00 -1.103e+02) (-3.417e-01 9.161e-03 1.306e-01) (0.000e+00 0.000e+00 0.000e+00)) ((-3.110e+01 -2.140e+02 1.382e+01) (2.684e-02 2.537e-02 9.872e-02) (0.000e+00 0.000e+00 0.000e+00))
90         	((-4.796e+01 -2.026e+00 -1.093e+02) (-3.463e-01 9.324e-03 1.302e-01) (0.000e+00 0.000e+00 0.000e+00)) ((-3.097e+01 -2.122e+02 1.324e+01) (2.662e-02 2.244e-02 1.003e-01) (0.000e+00 0.000e+00 0.000e+00))
91         	((-4.762e+01 -1.831e+00 -1.085e+02) (-3.511e-01 9.552e-03 1.298e-01) (0.000e+00 0.000e+00 0.000e+00)) ((-3.080e+01 -2.106e+02 1.290e+01) (2.633e-02 1.921e-02 1.018e-01) (0.000e+00 0.000e+00 0.000e+00))
92         	((-4.730e+01 -1.740e+00 -1.079e+02) (-3.561e-01 9.901e-03 1.292e-01) (0.000e+00 0.000e+00 0.000e+00)) ((-3.061e+01 -2.092e+02 1.272e+01) (2.595e-02 1.572e-02 1.032e-01) (0.000e+00 0.000e+00 0.000e+00))
93         	((-4.702e+01 -1.742e+00 -1.073e+02) (-3.613e-01 1.033e-02 1.286e-01) (0.000e+00 0.000e+00 0.000e+00)) ((-3.041e+01 -2.081e+02 1.268e+01) (2.550e-02 1.198e-02 1.045e-01) (0.000e+00 0.000e+00 0.000e+00))
94         	((-4.679e+01 -1.849e+00 -1.069e+02) (-3.667e-01 1.081e-02 1.278e-01) (0.000e+00 0.000e+00 0.000e+00)) ((-3.018e+01 -2.073e+02 1.281e+01) (2.500e-02 8.020e-03 1.058e-01) (0.000e+00 0.000e+00 0.000e+00))
95         	((-4.660e+01 -2.043e+00 -1.066e+02) (-3.723e-01 1.130e-02 1.270e-01) (0.000e+00 0.000e+00 0.000e+00)) ((-2.993e+01 -2.066e+02 1.309e+01) (2.450e-02 3.888e-03 1.071e-01) (0.000e+00 0.000e+00 0.000e+00))
96         	((-4.646e+01 -2.337e+00 -1.064e+02) (-3.780e-01 1.172e-02 1.262e-01) (0.000e+00 0.000e+00 0.000e+00)) ((-2.966e+01 -2.062e+02 1.352e+01) (2.403e-02 -2.612e-04 1.086e-01) (0.000e+00 0.000e+00 0.000e+00))
97         	((-4.636e+01 -2.744e+00 -1.063e+02) (-3.840e-01 1.201e-02 1.255e-01) (0.000e+00 0.000e+00 0.000e+00)) ((-2.936e+01 -2.059e+02 1.415e+01) (2.367e-02 -4.328e-03 1.103e-01) (0.000e+00 0.000e+00 0.000e+00))
98         	((-4.629e+01 -3.253e+00 -1.063e+02) (-3.901e-01 1.209e-02 1.250e-01) (0.000e+00 0.000e+00 0.000e+00)) ((-2.905e+01 -2.058e+02 1.495e+01) (2.347e-02 -8.155e-03 1.125e-01) (0.000e+00 0.000e+00 0.000e+00))
99         	((-4.624e+01 -3.843e+00 -1.064e+02) (-3.970e-01 1.190e-02 1.248e-01) (0.000e+00 0.000e+00 0.000e+00)) ((-2.875e+01 -2.060e+02 1.586e+01) (2.349e-02 -1.190e-02 1.154e-01) (0.000e+00 0.000e+00 0.000e+00))
100        	((-4.622e+01 -4.471e+00 -1.067e+02) (-4.042e-01 1.157e-02 1.250e-01) (0.000e+00 0.000e+00 0.000e+00)) ((-2.848e+01 -2.063e+02 1.681e+01) (2.378e-02 -1.499e-02 1.186e-01) (0.000e+00 0.000e+00 0.000e+00))
101        	((-4.620e+01 -5.072e+00 -1.070e+02) (-4.117e-01 1.109e-02 1.257e-01) (0.000e+00 0.000e+00 0.000e+00)) ((-2.827e+01 -2.068e+02 1.768e+01) (2.438e-02 -1.729e-02 1.222e-01) (0.000e+00 0.000e+00 0.000e+00))
102        	((-4.620e+01 -5.577e+00 -1.074e+02) (-4.194e-01 1.056e-02 1.271e-01) (0.000e+00 0.000e+00 0.000e+00)) ((-2.814e+01 -2.074e+02 1.838e+01) (2.532e-02 -1.852e-02 1.259e-01) (0.000e+00 0.000e+00 0.000e+00))
103        	((-4.620e+01 -5.951e+00 -1.077e+02) (-4.268e-01 9.928e-03 1.290e-01) (0.000e+00 0.000e+00 0.000e+00)) ((-2.808e+01 -2.081e+02 1.885e+01) (2.654e-02 -1.888e-02 1.296e-01) (0.000e+00 0.000e+00 0.000e+00))
104        	((-4.619e+01 -6.219e+00 -1.081e+02) (-4.339e-01 9.241e-03 1.313e-01) (0.000e+00 0.000e+00 0.000e+00)) ((-2.807e+01 -2.087e+02 1.914e+01) (2.797e-02 -1.842e-02 1.333e-01) (0.000e+00 0.000e+00 0.000e+00))
105        	((-4.616e+01 -6.437e+00 -1.084e+02) (-4.406e-01 8.556e-03 1.337e-01) (0.000e+00 0.000e+00 0.000e+00)) ((-2.806e+01 -2.092e+02 1.938e+01) (2.947e-02 -1.765e-02 1.368e-01) (0.000e+00 0.000e+00 0.000e+00))
106        	((-4.614e+01 -6.666e+00 -1.087e+02) (-4.467e-01 7.914e-03 1.362e-01) (0.000e+00 0.000e+00 0.000e+00)) ((-2.803e+01 -2.096e+02 1.967e+01) (3.099e-02 -1.656e-02 1.400e-01) (0.000e+00 0.000e+00 0.000e+00))
107        	((-4.613e+01 -6.967e+00 -1.089e+02) (-4.526e-01 7.248e-03 1.386e-01) (0.000e+00 0.000e+00 0.000e+00)) ((-2.792e+01 -2.100e+02 2.012e+01) (3.250e-02 -1.542e-02 1.431e-01) (0.000e+00 0.000e+00 0.000e+00))
108        	((-4.613e+01 -7.356e+00 -1.091e+02) (-4.580e-01 6.603e-03 1.411e-01) (0.000e+00 0.000e+00 0.000e+00)) ((-2.775e+01 -2.104e+02 2.076e+01) (3.401e-02 -1.409e-02 1.460e-01) (0.000e+00 0.000e+00 0.000e+00))
109        	((-4.617e+01 -7.820e+00 -1.093e+02) (-4.629e-01 5.894e-03 1.434e-01) (0.000e+00 0.000e+00 0.000e+00)) ((-2.751e+01 -2.107e+02 2.156e+01) (3.548e-02 -1.275e-02 1.488e-01) (0.000e+00 0.000e+00 0.000e+00))
110        	((-4.624e+01 -8.334e+00 -1.095e+02) (-4.672e-01 5.128e-03 1.457e-01) (0.000e+00 0.000e+00 0.000e+00)) ((-2.725e+01 -2.111e+02 2.249e+01) (3.691e-02 -1.121e-02 1.514e-01) (0.000e+00 0.000e+00 0.000e+00))
111        	((-4.634e+01 -8.880e+00 -1.098e+02) (-4.710e-01 4.316e-03 1.479e-01) (0.000e+00 0.000e+00 0.000e+00)) ((-2.696e+01 -2.116e+02 2.348e+01) (3.830e-02 -9.565e-03 1.539e-01) (0.000e+00 0.000e+00 0.000e+00))
112        	((-4.645e+01 -9.496e+00 -1.100e+02) (-4.752e-01 3.468e-03 1.501e-01) (0.000e+00 0.000e+00 0.000e+00)) ((-2.666e+01 -2.122e+02 2.458e+01) (3.969e-02 -7.802e-03 1.566e-01) (0.000e+00 0.000e+00 0.000e+00))
113        	((-4.656e+01 -1.013e+01 -1.103e+02) (-4.801e-01 2.642e-03 1.524e-01) (0.000e+00 0.000e+00 0.000e+00)) ((-2.637e+01 -2.128e+02 2.569e+01) (4.109e-02 -5.979e-03 1.596e-01) (0.000e+00 0.000e+00 0.000e+00))
114        	((-4.666e+01 -1.080e+01 -1.107e+02) (-4.856e-01 1.917e-03 1.545e-01) (0.000e+00 0.000e+00 0.000e+00)) ((-2.608e+01 -2.134e+02 2.685e+01) (4.235e-02 -4.558e-03 1.626e-01) (0.000e+00 0.000e+00 0.000e+00))
115        	((-4.675e+01 -1.155e+01 -1.110e+02) (-4.918e-01 1.334e-03 1.565e-01) (0.000e+00 0.000e+00 0.000e+00)) ((-2.577e+01 -2.141e+02 2.812e+01) (4.343e-02 -3.778e-03 1.657e-01) (0.000e+00 0.000e+00 0.000e+00))
116        	((-4.682e+01 -1.238e+01 -1.114e+02) (-4.986e-01 9.228e-04 1.581e-01) (0.000e+00 0.000e+00 0.000e+00)) ((-2.545e+01 -2.147e+02 2.948e+01) (4.432e-02 -3.596e-03 1.688e-01) (0.000e+00 0.000e+00 0.000e+00))
117        	((-4.688e+01 -1.328e+01 -1.117e+02) (-5.060e-01 6.515e-04 1.597e-01) (0.000e+00 0.000e+00 0.000e+00)) ((-2.509e+01 -2.154e+02 3.097e+01) (4.511e-02 -3.833e-03 1.719e-01) (0.000e+00 0.000e+00 0.000e+00))
118        	((-4.693e+01 -1.424e+01 -1.121e+02) (-5.139e-01 4.995e-04 1.612e-01) (0.000e+00 0.000e+00 0.000e+00)) ((-2.471e+01 -2.160e+02 3.253e+01) (4.579e-02 -4.499e-03 1.751e-01) (0.000e+00 0.000e+00 0.000e+00))
119        	((-4.697e+01 -1.523e+01 -1.124e+02) (-5.222e-01 5.316e-04 1.624e-01) (0.000e+00 0.000e+00 0.000e+00)) ((-2.431e+01 -2.166e+02 3.414e+01) (4.633e-02 -5.544e-03 1.781e-01) (0.000e+00 0.000e+00 0.000e+00))
120        	((-4.699e+01 -1.622e+01 -1.127e+02) (-5.304e-01 4.874e-04 1.636e-01) (0.000e+00 0.000e+00 0.000e+00)) ((-2.390e+01 -2.171e+02 3.574e+01) (4.681e-02 -6.901e-03 1.813e-01) (0.000e+00 0.000e+00 0.000e+00))
121        	((-4.700e+01 -1.716e+01 -1.129e+02) (-5.385e-01 2.921e-04 1.645e-01) (0.000e+00 0.000e+00 0.000e+00)) ((-2.350e+01 -2.174e+02 3.724e+01) (4.726e-02 -8.492e-03 1.846e-01) (0.000e+00 0.000e+00 0.000e+00))
122        	((-4.699e+01 -1.799e+01 -1.130e+02) (-5.459e-01 9.526e-05 1.653e-01) (0.000e+00 0.000e+00 0.000e+00)) ((-2.313e+01 -2.176e+02 3.855e+01) (4.765e-02 -1.009e-02 1.877e-01) (0.000e+00 0.000e+00 0.000e+00))
123        	((-4.694e+01 -1.861e+01 -1.131e+02) (-5.528e-01 -1.088e-04 1.658e-01) (0.000e+00 0.000e+00 0.000e+00)) ((-2.281e+01 -2.176e+02 3.952e+01) (4.789e-02 -1.214e-02 1.906e-01) (0.000e+00 0.000e+00 0.000e+00))
124        	((-4.686e+01 -1.896e+01 -1.130e+02) (-5.588e-01 -3.006e-04 1.656e-01) (0.000e+00 0.000e+00 0.000e+00)) ((-2.259e+01 -2.174e+02 4.006e+01) (4.780e-02 -1.507e-02 1.931e-01) (0.000e+00 0.000e+00 0.000e+00))
125        	((-4.672e+01 -1.905e+01 -1.128e+02) (-5.638e-01 -4.277e-04 1.646e-01) (0.000e+00 0.000e+00 0.000e+00)) ((-2.247e+01 -2.170e+02 4.017e+01) (4.733e-02 -1.903e-02 1.950e-01) (0.000e+00 0.000e+00 0.000e+00))
126        	((-4.653e+01 -1.887e+01 -1.125e+02) (-5.676e-01 -4.006e-04 1.628e-01) (0.000e+00 0.000e+00 0.000e+00)) ((-2.245e+01 -2.163e+02 3.982e+01) (4.645e-02 -2.388e-02 1.961e-01) (0.000e+00 0.000e+00 0.000e+00))
127        	((-4.629e+01 -1.843e+01 -1.122e+02) (-5.708e-01 -2.220e-04 1.607e-01) (0.000e+00 0.000e+00 0.000e+00)) ((-2.256e+01 -2.155e+02 3.902e+01) (4.535e-02 -2.913e-02 1.968e-01) (0.000e+00 0.000e+00 0.000e+00))
128        	((-4.600e+01 -1.773e+01 -1.118e+02) (-5.740e-01 1.370e-04 1.583e-01) (0.000e+00 0.000e+00 0.000e+00)) ((-2.277e+01 -2.146e+02 3.779e+01) (4.408e-02 -3.469e-02 1.970e-01) (0.000e+00 0.000e+00 0.000e+00))
129        	((-4.570e+01 -1.682e+01 -1.113e+02) (-5.780e-01 4.944e-04 1.559e-01) (0.000e+00 0.000e+00 0.000e+00)) ((-2.310e+01 -2.135e+02 3.617e+01) (4.277e-02 -4.068e-02 1.976e-01) (0.000e+00 0.000e+00 0.000e+00))
130        	((-4.538e+01 -1.573e+01 -1.109e+02) (-5.832e-01 8.765e-04 1.537e-01) (0.000e+00 0.000e+00 0.000e+00)) ((-2.353e+01 -2.125e+02 3.425e+01) (4.154e-02 -4.664e-02 1.986e-01) (0.000e+00 0.000e+00 0.000e+00))
131        	((-4.506e+01 -1.456e+01 -1.104e+02) (-5.898e-01 1.186e-03 1.519e-01) (0.000e+00 0.000e+00 0.000e+00)) ((-2.401e+01 -2.115e+02 3.219e+01) (4.050e-02 -5.260e-02 2.003e-01) (0.000e+00 0.000e+00 0.000e+00))
132        	((-4.475e+01 -1.344e+01 -1.100e+02) (-5.978e-01 1.637e-03 1.507e-01) (0.000e+00 0.000e+00 0.000e+00)) ((-2.449e+01 -2.106e+02 3.020e+01) (3.965e-02 -5.814e-02 2.025e-01) (0.000e+00 0.000e+00 0.000e+00))
133        	((-4.448e+01 -1.245e+01 -1.096e+02) (-6.070e-01 2.053e-03 1.500e-01) (0.000e+00 0.000e+00 0.000e+00)) ((-2.491e+01 -2.097e+02 2.846e+01) (3.906e-02 -6.316e-02 2.051e-01) (0.000e+00 0.000e+00 0.000e+00))
134        	((-4.424e+01 -1.164e+01 -1.093e+02) (-6.167e-01 2.381e-03 1.498e-01) (0.000e+00 0.000e+00 0.000e+00)) ((-2.527e+01 -2.089e+02 2.703e+01) (3.867e-02 -6.773e-02 2.082e-01) (0.000e+00 0.000e+00 0.000e+00))
135        	((-4.405e+01 -1.103e+01 -1.089e+02) (-6.267e-01 2.693e-03 1.495e-01) (0.000e+00 0.000e+00 0.000e+00)) ((-2.553e+01 -2.082e+02 2.596e+01) (3.828e-02 -7.245e-02 2.114e-01) (0.000e+00 0.000e+00 0.000e+00))
136        	((-4.391e+01 -1.065e+01 -1.085e+02) (-6.366e-01 2.934e-03 1.492e-01) (0.000e+00 0.000e+00 0.000e+00)) ((-2.567e+01 -2.075e+02 2.530e+01) (3.788e-02 -7.720e-02 2.147e-01) (0.000e+00 0.000e+00 0.000e+00))
137        	((-4.381e+01 -1.048e+01 -1.082e+02) (-6.460e-01 3.178e-03 1.487e-01) (0.000e+00 0.000e+00 0.000e+00)) ((-2.570e+01 -2.068e+02 2.505e+01) (3.741e-02 -8.207e-02 2.179e-01) (0.000e+00 0.000e+00 0.000e+00))
138        	((-4.377e+01 -1.050e+01 -1.078e+02) (-6.547e-01 3.433e-03 1.479e-01) (0.000e+00 0.000e+00 0.000e+00)) ((-2.562e+01 -2.061e+02 2.515e+01) (3.677e-02 -8.721e-02 2.207e-01) (0.000e+00 0.000e+00 0.000e+00))
139        	((-4.377e+01 -1.067e+01 -1.073e+02) (-6.625e-01 3.782e-03 1.468e-01) (0.000e+00 0.000e+00 0.000e+00)) ((-2.544e+01 -2.054e+02 2.553e+01) (3.593e-02 -9.264e-02 2.231e-01) (0.000e+00 0.000e+00 0.000e+00))