# Force coefficients
# liftDir  : (0.000e+00 0.000e+00 1.000e+00)
# dragDir  : (1.000e+00 0.000e+00 0.000e+00)
# pitchAxis: (0.000e+00 1.000e+00 0.000e+00)
# magUInf  : 1.500e+01
# lRef     : 1.590e+00
# Aref     : 7.259e-01
# CofR     : (7.200e-01 0.000e+00 0.000e+00)
# Time     	Cm         	Cd         	Cl         	Cl(f)      	Cl(r)      
1          	-1.213e+01	-1.552e+01	-1.081e+01	-1.754e+01	6.725e+00
2          	-6.087e+00	-6.640e+00	-5.763e+00	-8.969e+00	3.206e+00
3          	-4.083e+00	-3.987e+00	-4.035e+00	-6.101e+00	2.065e+00
4          	-2.921e+00	-2.217e+00	-3.059e+00	-4.450e+00	1.392e+00
5          	-2.607e+00	-1.629e+00	-2.804e+00	-4.009e+00	1.205e+00
6          	-2.492e+00	-1.448e+00	-2.720e+00	-3.852e+00	1.132e+00
7          	-2.522e+00	-1.501e+00	-2.773e+00	-3.908e+00	1.135e+00
8          	-2.584e+00	-1.568e+00	-2.840e+00	-4.004e+00	1.164e+00
9          	-2.667e+00	-1.644e+00	-2.934e+00	-4.134e+00	1.201e+00
10         	-2.677e+00	-1.656e+00	-2.949e+00	-4.152e+00	1.202e+00
11         	-2.675e+00	-1.657e+00	-2.959e+00	-4.154e+00	1.196e+00
12         	-2.677e+00	-1.638e+00	-2.973e+00	-4.163e+00	1.190e+00
13         	-2.683e+00	-1.600e+00	-2.992e+00	-4.179e+00	1.187e+00
14         	-2.688e+00	-1.552e+00	-3.013e+00	-4.195e+00	1.182e+00
15         	-2.693e+00	-1.504e+00	-3.032e+00	-4.209e+00	1.177e+00
16         	-2.693e+00	-1.457e+00	-3.047e+00	-4.217e+00	1.170e+00
17         	-2.688e+00	-1.417e+00	-3.055e+00	-4.216e+00	1.161e+00
18         	-2.686e+00	-1.380e+00	-3.062e+00	-4.217e+00	1.154e+00
19         	-2.686e+00	-1.348e+00	-3.070e+00	-4.221e+00	1.151e+00
20         	-2.698e+00	-1.322e+00	-3.085e+00	-4.241e+00	1.156e+00
21         	-2.705e+00	-1.295e+00	-3.100e+00	-4.255e+00	1.155e+00
22         	-2.721e+00	-1.279e+00	-3.117e+00	-4.279e+00	1.163e+00
23         	-2.740e+00	-1.266e+00	-3.137e+00	-4.309e+00	1.172e+00
24         	-2.758e+00	-1.257e+00	-3.153e+00	-4.334e+00	1.181e+00
25         	-2.774e+00	-1.248e+00	-3.165e+00	-4.356e+00	1.191e+00
26         	-2.788e+00	-1.241e+00	-3.175e+00	-4.375e+00	1.200e+00
27         	-2.796e+00	-1.231e+00	-3.176e+00	-4.384e+00	1.208e+00
28         	-2.804e+00	-1.224e+00	-3.181e+00	-4.394e+00	1.213e+00
29         	-2.804e+00	-1.212e+00	-3.176e+00	-4.392e+00	1.216e+00
30         	-2.808e+00	-1.205e+00	-3.178e+00	-4.397e+00	1.219e+00
31         	-2.803e+00	-1.195e+00	-3.171e+00	-4.389e+00	1.218e+00
32         	-2.805e+00	-1.189e+00	-3.174e+00	-4.392e+00	1.218e+00
33         	-2.798e+00	-1.178e+00	-3.171e+00	-4.384e+00	1.213e+00
34         	-2.799e+00	-1.174e+00	-3.174e+00	-4.386e+00	1.212e+00
35         	-2.791e+00	-1.164e+00	-3.171e+00	-4.376e+00	1.205e+00
36         	-2.794e+00	-1.161e+00	-3.173e+00	-4.381e+00	1.207e+00
37         	-2.786e+00	-1.153e+00	-3.165e+00	-4.369e+00	1.203e+00
38         	-2.787e+00	-1.152e+00	-3.162e+00	-4.368e+00	1.206e+00
39         	-2.773e+00	-1.147e+00	-3.142e+00	-4.344e+00	1.202e+00
40         	-2.771e+00	-1.147e+00	-3.135e+00	-4.338e+00	1.203e+00
41         	-2.757e+00	-1.146e+00	-3.113e+00	-4.314e+00	1.201e+00
42         	-2.759e+00	-1.148e+00	-3.110e+00	-4.314e+00	1.204e+00
43         	-2.758e+00	-1.149e+00	-3.103e+00	-4.309e+00	1.207e+00
44         	-2.758e+00	-1.153e+00	-3.096e+00	-4.306e+00	1.210e+00
45         	-2.759e+00	-1.158e+00	-3.091e+00	-4.305e+00	1.214e+00
46         	-2.761e+00	-1.165e+00	-3.086e+00	-4.304e+00	1.218e+00
47         	-2.764e+00	-1.174e+00	-3.084e+00	-4.306e+00	1.222e+00
48         	-2.771e+00	-1.183e+00	-3.086e+00	-4.314e+00	1.228e+00
49         	-2.781e+00	-1.192e+00	-3.093e+00	-4.327e+00	1.234e+00
50         	-2.794e+00	-1.201e+00	-3.103e+00	-4.345e+00	1.242e+00
51         	-2.808e+00	-1.208e+00	-3.116e+00	-4.366e+00	1.250e+00
52         	-2.824e+00	-1.215e+00	-3.130e+00	-4.389e+00	1.259e+00
53         	-2.841e+00	-1.220e+00	-3.144e+00	-4.414e+00	1.269e+00
54         	-2.861e+00	-1.224e+00	-3.160e+00	-4.441e+00	1.281e+00
55         	-2.880e+00	-1.229e+00	-3.176e+00	-4.469e+00	1.292e+00
56         	-2.899e+00	-1.235e+00	-3.192e+00	-4.495e+00	1.303e+00
57         	-2.915e+00	-1.241e+00	-3.207e+00	-4.518e+00	1.311e+00
58         	-2.928e+00	-1.247e+00	-3.221e+00	-4.539e+00	1.318e+00
59         	-2.943e+00	-1.255e+00	-3.236e+00	-4.561e+00	1.325e+00
60         	-2.952e+00	-1.259e+00	-3.245e+00	-4.574e+00	1.330e+00
61         	-2.967e+00	-1.264e+00	-3.259e+00	-4.596e+00	1.337e+00
62         	-2.979e+00	-1.268e+00	-3.271e+00	-4.614e+00	1.343e+00
63         	-3.002e+00	-1.272e+00	-3.295e+00	-4.650e+00	1.355e+00
64         	-3.018e+00	-1.274e+00	-3.311e+00	-4.674e+00	1.363e+00
65         	-3.043e+00	-1.276e+00	-3.336e+00	-4.711e+00	1.375e+00
66         	-3.073e+00	-1.280e+00	-3.367e+00	-4.757e+00	1.390e+00
67         	-3.104e+00	-1.285e+00	-3.397e+00	-4.803e+00	1.406e+00
68         	-3.133e+00	-1.290e+00	-3.424e+00	-4.845e+00	1.420e+00
69         	-3.155e+00	-1.295e+00	-3.445e+00	-4.877e+00	1.432e+00
70         	-3.171e+00	-1.300e+00	-3.459e+00	-4.900e+00	1.441e+00
71         	-3.181e+00	-1.305e+00	-3.467e+00	-4.914e+00	1.447e+00
72         	-3.186e+00	-1.309e+00	-3.471e+00	-4.921e+00	1.450e+00
73         	-3.188e+00	-1.313e+00	-3.473e+00	-4.924e+00	1.451e+00
74         	-3.189e+00	-1.316e+00	-3.474e+00	-4.926e+00	1.452e+00
75         	-3.191e+00	-1.319e+00	-3.478e+00	-4.930e+00	1.452e+00
76         	-3.196e+00	-1.321e+00	-3.485e+00	-4.938e+00	1.454e+00
77         	-3.202e+00	-1.323e+00	-3.495e+00	-4.949e+00	1.455e+00
78         	-3.208e+00	-1.326e+00	-3.507e+00	-4.962e+00	1.455e+00
79         	-3.213e+00	-1.328e+00	-3.519e+00	-4.973e+00	1.454e+00
80         	-3.216e+00	-1.331e+00	-3.530e+00	-4.981e+00	1.451e+00
81         	-3.216e+00	-1.333e+00	-3.539e+00	-4.986e+00	1.447e+00
82         	-3.212e+00	-1.333e+00	-3.544e+00	-4.985e+00	1.440e+00
83         	-3.203e+00	-1.331e+00	-3.543e+00	-4.975e+00	1.432e+00
84         	-3.188e+00	-1.326e+00	-3.534e+00	-4.955e+00	1.421e+00
85         	-3.168e+00	-1.320e+00	-3.519e+00	-4.927e+00	1.408e+00
86         	-3.144e+00	-1.313e+00	-3.501e+00	-4.895e+00	1.394e+00
87         	-3.120e+00	-1.305e+00	-3.483e+00	-4.861e+00	1.378e+00
88         	-3.098e+00	-1.299e+00	-3.467e+00	-4.831e+00	1.364e+00
89         	-3.080e+00	-1.293e+00	-3.457e+00	-4.809e+00	1.352e+00
90         	-3.069e+00	-1.290e+00	-3.453e+00	-4.796e+00	1.343e+00
91         	-3.065e+00	-1.288e+00	-3.456e+00	-4.793e+00	1.337e+00
92         	-3.067e+00	-1.287e+00	-3.463e+00	-4.799e+00	1.335e+00
93         	-3.075e+00	-1.288e+00	-3.476e+00	-4.813e+00	1.337e+00
94         	-3.088e+00	-1.289e+00	-3.491e+00	-4.833e+00	1.343e+00
95         	-3.104e+00	-1.290e+00	-3.508e+00	-4.858e+00	1.350e+00
96         	-3.122e+00	-1.291e+00	-3.525e+00	-4.884e+00	1.359e+00
97         	-3.139e+00	-1.292e+00	-3.541e+00	-4.910e+00	1.369e+00
98         	-3.156e+00	-1.292e+00	-3.557e+00	-4.935e+00	1.378e+00
99         	-3.173e+00	-1.293e+00	-3.572e+00	-4.959e+00	1.387e+00
100        	-3.190e+00	-1.294e+00	-3.588e+00	-4.984e+00	1.396e+00
101        	-3.208e+00	-1.293e+00	-3.605e+00	-5.011e+00	1.406e+00
102        	-3.227e+00	-1.292e+00	-3.624e+00	-5.039e+00	1.415e+00
103        	-3.246e+00	-1.291e+00	-3.643e+00	-5.067e+00	1.424e+00
104        	-3.263e+00	-1.290e+00	-3.661e+00	-5.094e+00	1.433e+00
105        	-3.279e+00	-1.289e+00	-3.676e+00	-5.117e+00	1.441e+00
106        	-3.291e+00	-1.290e+00	-3.687e+00	-5.134e+00	1.447e+00
107        	-3.298e+00	-1.291e+00	-3.693e+00	-5.144e+00	1.451e+00
108        	-3.298e+00	-1.293e+00	-3.691e+00	-5.144e+00	1.453e+00
109        	-3.293e+00	-1.295e+00	-3.683e+00	-5.134e+00	1.451e+00
110        	-3.281e+00	-1.297e+00	-3.669e+00	-5.116e+00	1.447e+00
111        	-3.267e+00	-1.299e+00	-3.651e+00	-5.092e+00	1.441e+00
112        	-3.251e+00	-1.300e+00	-3.633e+00	-5.067e+00	1.434e+00
113        	-3.236e+00	-1.301e+00	-3.617e+00	-5.045e+00	1.428e+00
114        	-3.228e+00	-1.302e+00	-3.607e+00	-5.032e+00	1.425e+00
115        	-3.228e+00	-1.303e+00	-3.604e+00	-5.030e+00	1.426e+00
116        	-3.236e+00	-1.304e+00	-3.609e+00	-5.040e+00	1.431e+00
117        	-3.249e+00	-1.307e+00	-3.620e+00	-5.059e+00	1.439e+00
118        	-3.265e+00	-1.311e+00	-3.633e+00	-5.082e+00	1.449e+00
119        	-3.281e+00	-1.316e+00	-3.647e+00	-5.105e+00	1.457e+00
120        	-3.296e+00	-1.320e+00	-3.661e+00	-5.126e+00	1.465e+00
121        	-3.308e+00	-1.324e+00	-3.673e+00	-5.145e+00	1.471e+00
122        	-3.317e+00	-1.328e+00	-3.684e+00	-5.159e+00	1.475e+00
123        	-3.323e+00	-1.330e+00	-3.692e+00	-5.170e+00	1.477e+00
124        	-3.326e+00	-1.331e+00	-3.697e+00	-5.175e+00	1.477e+00
125        	-3.324e+00	-1.331e+00	-3.699e+00	-5.174e+00	1.475e+00
126        	-3.319e+00	-1.329e+00	-3.697e+00	-5.167e+00	1.470e+00
127        	-3.308e+00	-1.327e+00	-3.691e+00	-5.154e+00	1.463e+00
128        	-3.294e+00	-1.324e+00	-3.680e+00	-5.134e+00	1.454e+00
129        	-3.277e+00	-1.321e+00	-3.667e+00	-5.110e+00	1.443e+00
130        	-3.258e+00	-1.318e+00	-3.651e+00	-5.083e+00	1.432e+00
131        	-3.238e+00	-1.315e+00	-3.635e+00	-5.055e+00	1.421e+00
132        	-3.219e+00	-1.313e+00	-3.618e+00	-5.028e+00	1.410e+00
133        	-3.202e+00	-1.312e+00	-3.603e+00	-5.004e+00	1.401e+00
134        	-3.188e+00	-1.311e+00	-3.590e+00	-4.983e+00	1.393e+00
135        	-3.175e+00	-1.311e+00	-3.578e+00	-4.964e+00	1.386e+00
136        	-3.164e+00	-1.312e+00	-3.567e+00	-4.947e+00	1.380e+00
137        	-3.153e+00	-1.313e+00	-3.555e+00	-4.930e+00	1.375e+00
138        	-3.141e+00	-1.315e+00	-3.543e+00	-4.913e+00	1.370e+00
139        	-3.131e+00	-1.317e+00	-3.531e+00	-4.896e+00	1.365e+00
140        	-3.120e+00	-1.319e+00	-3.520e+00	-4.881e+00	1.360e+00
141        	-3.111e+00	-1.321e+00	-3.511e+00	-4.866e+00	1.356e+00
142        	-3.101e+00	-1.323e+00	-3.501e+00	-4.852e+00	1.351e+00
143        	-3.092e+00	-1.324e+00	-3.492e+00	-4.838e+00	1.345e+00
144        	-3.082e+00	-1.325e+00	-3.483e+00	-4.823e+00	1.340e+00
145        	-3.071e+00	-1.326e+00	-3.474e+00	-4.808e+00	1.334e+00
146        	-3.061e+00	-1.327e+00	-3.464e+00	-4.793e+00	1.328e+00
147        	-3.050e+00	-1.328e+00	-3.455e+00	-4.777e+00	1.322e+00
148        	-3.038e+00	-1.329e+00	-3.445e+00	-4.760e+00	1.316e+00
149        	-3.025e+00	-1.330e+00	-3.435e+00	-4.743e+00	1.308e+00
150        	-3.012e+00	-1.329e+00	-3.425e+00	-4.724e+00	1.300e+00
151        	-2.997e+00	-1.328e+00	-3.415e+00	-4.705e+00	1.290e+00
152        	-2.982e+00	-1.327e+00	-3.405e+00	-4.685e+00	1.280e+00
153        	-2.967e+00	-1.325e+00	-3.396e+00	-4.665e+00	1.269e+00
154        	-2.951e+00	-1.322e+00	-3.388e+00	-4.645e+00	1.258e+00
155        	-2.937e+00	-1.320e+00	-3.380e+00	-4.627e+00	1.247e+00
156        	-2.922e+00	-1.318e+00	-3.373e+00	-4.609e+00	1.236e+00
157        	-2.909e+00	-1.315e+00	-3.367e+00	-4.593e+00	1.226e+00
158        	-2.897e+00	-1.312e+00	-3.361e+00	-4.578e+00	1.217e+00
159        	-2.888e+00	-1.310e+00	-3.357e+00	-4.566e+00	1.210e+00
160        	-2.882e+00	-1.307e+00	-3.354e+00	-4.559e+00	1.205e+00
161        	-2.879e+00	-1.304e+00	-3.354e+00	-4.556e+00	1.202e+00
162        	-2.881e+00	-1.302e+00	-3.356e+00	-4.559e+00	1.203e+00
163        	-2.885e+00	-1.299e+00	-3.361e+00	-4.566e+00	1.205e+00
164        	-2.893e+00	-1.297e+00	-3.368e+00	-4.577e+00	1.209e+00
165        	-2.903e+00	-1.294e+00	-3.376e+00	-4.591e+00	1.215e+00
166        	-2.912e+00	-1.291e+00	-3.385e+00	-4.605e+00	1.220e+00
167        	-2.921e+00	-1.287e+00	-3.392e+00	-4.617e+00	1.225e+00
168        	-2.927e+00	-1.283e+00	-3.396e+00	-4.625e+00	1.229e+00
169        	-2.930e+00	-1.279e+00	-3.398e+00	-4.629e+00	1.230e+00
170        	-2.929e+00	-1.275e+00	-3.397e+00	-4.627e+00	1.230e+00
171        	-2.926e+00	-1.271e+00	-3.393e+00	-4.622e+00	1.229e+00
172        	-2.921e+00	-1.267e+00	-3.388e+00	-4.615e+00	1.227e+00
173        	-2.915e+00	-1.264e+00	-3.382e+00	-4.606e+00	1.225e+00
174        	-2.911e+00	-1.261e+00	-3.376e+00	-4.599e+00	1.222e+00
175        	-2.907e+00	-1.260e+00	-3.371e+00	-4.592e+00	1.221e+00
176        	-2.905e+00	-1.259e+00	-3.368e+00	-4.588e+00	1.221e+00
177        	-2.904e+00	-1.260e+00	-3.365e+00	-4.587e+00	1.222e+00
178        	-2.906e+00	-1.261e+00	-3.364e+00	-4.588e+00	1.224e+00
179        	-2.909e+00	-1.263e+00	-3.364e+00	-4.591e+00	1.227e+00
180        	-2.914e+00	-1.265e+00	-3.365e+00	-4.597e+00	1.231e+00
181        	-2.920e+00	-1.267e+00	-3.367e+00	-4.603e+00	1.236e+00
182        	-2.926e+00	-1.269e+00	-3.370e+00	-4.611e+00	1.241e+00
183        	-2.932e+00	-1.272e+00	-3.372e+00	-4.618e+00	1.246e+00
184        	-2.937e+00	-1.274e+00	-3.373e+00	-4.623e+00	1.250e+00
185        	-2.940e+00	-1.277e+00	-3.374e+00	-4.627e+00	1.253e+00
186        	-2.941e+00	-1.278e+00	-3.373e+00	-4.628e+00	1.255e+00
187        	-2.941e+00	-1.280e+00	-3.371e+00	-4.627e+00	1.255e+00
188        	-2.940e+00	-1.281e+00	-3.369e+00	-4.624e+00	1.255e+00
189        	-2.937e+00	-1.281e+00	-3.366e+00	-4.620e+00	1.254e+00
190        	-2.934e+00	-1.281e+00	-3.363e+00	-4.616e+00	1.253e+00
191        	-2.932e+00	-1.280e+00	-3.361e+00	-4.612e+00	1.251e+00
192        	-2.929e+00	-1.279e+00	-3.359e+00	-4.609e+00	1.250e+00
193        	-2.928e+00	-1.277e+00	-3.358e+00	-4.607e+00	1.249e+00
194        	-2.927e+00	-1.275e+00	-3.357e+00	-4.606e+00	1.249e+00
195        	-2.927e+00	-1.273e+00	-3.356e+00	-4.605e+00	1.249e+00
196        	-2.928e+00	-1.270e+00	-3.355e+00	-4.605e+00	1.250e+00
197        	-2.928e+00	-1.268e+00	-3.355e+00	-4.605e+00	1.250e+00
198        	-2.928e+00	-1.265e+00	-3.355e+00	-4.606e+00	1.251e+00
199        	-2.929e+00	-1.263e+00	-3.355e+00	-4.606e+00	1.252e+00
200        	-2.930e+00	-1.261e+00	-3.356e+00	-4.608e+00	1.252e+00
201        	-2.931e+00	-1.261e+00	-3.357e+00	-4.610e+00	1.253e+00
202        	-2.933e+00	-1.260e+00	-3.359e+00	-4.612e+00	1.254e+00
203        	-2.935e+00	-1.261e+00	-3.362e+00	-4.616e+00	1.254e+00
204        	-2.938e+00	-1.261e+00	-3.365e+00	-4.620e+00	1.255e+00
205        	-2.941e+00	-1.262e+00	-3.369e+00	-4.625e+00	1.256e+00
206        	-2.944e+00	-1.264e+00	-3.372e+00	-4.630e+00	1.258e+00
207        	-2.947e+00	-1.265e+00	-3.376e+00	-4.635e+00	1.259e+00
208        	-2.950e+00	-1.267e+00	-3.379e+00	-4.639e+00	1.261e+00
209        	-2.952e+00	-1.269e+00	-3.380e+00	-4.642e+00	1.262e+00
210        	-2.954e+00	-1.271e+00	-3.381e+00	-4.644e+00	1.263e+00
211        	-2.954e+00	-1.273e+00	-3.380e+00	-4.644e+00	1.264e+00
212        	-2.953e+00	-1.276e+00	-3.379e+00	-4.642e+00	1.264e+00
213        	-2.951e+00	-1.278e+00	-3.376e+00	-4.639e+00	1.263e+00
214        	-2.949e+00	-1.280e+00	-3.373e+00	-4.635e+00	1.262e+00
215        	-2.946e+00	-1.282e+00	-3.369e+00	-4.630e+00	1.261e+00
216        	-2.942e+00	-1.284e+00	-3.366e+00	-4.626e+00	1.259e+00
217        	-2.939e+00	-1.286e+00	-3.364e+00	-4.621e+00	1.257e+00
218        	-2.936e+00	-1.287e+00	-3.362e+00	-4.617e+00	1.255e+00
219        	-2.933e+00	-1.287e+00	-3.360e+00	-4.613e+00	1.253e+00
220        	-2.929e+00	-1.288e+00	-3.359e+00	-4.609e+00	1.250e+00
221        	-2.926e+00	-1.287e+00	-3.358e+00	-4.605e+00	1.247e+00
222        	-2.923e+00	-1.287e+00	-3.357e+00	-4.601e+00	1.244e+00
223        	-2.919e+00	-1.285e+00	-3.356e+00	-4.598e+00	1.241e+00
224        	-2.916e+00	-1.284e+00	-3.355e+00	-4.593e+00	1.238e+00
225        	-2.912e+00	-1.282e+00	-3.353e+00	-4.588e+00	1.235e+00
226        	-2.907e+00	-1.280e+00	-3.351e+00	-4.583e+00	1.232e+00
227        	-2.902e+00	-1.278e+00	-3.348e+00	-4.576e+00	1.228e+00
228        	-2.896e+00	-1.276e+00	-3.345e+00	-4.569e+00	1.224e+00
229        	-2.890e+00	-1.273e+00	-3.340e+00	-4.560e+00	1.220e+00
230        	-2.883e+00	-1.271e+00	-3.335e+00	-4.551e+00	1.215e+00
231        	-2.875e+00	-1.269e+00	-3.330e+00	-4.540e+00	1.210e+00
232        	-2.867e+00	-1.267e+00	-3.323e+00	-4.528e+00	1.205e+00
233        	-2.858e+00	-1.265e+00	-3.316e+00	-4.516e+00	1.200e+00
234        	-2.849e+00	-1.263e+00	-3.309e+00	-4.503e+00	1.194e+00
235        	-2.840e+00	-1.262e+00	-3.301e+00	-4.490e+00	1.189e+00
236        	-2.830e+00	-1.260e+00	-3.294e+00	-4.477e+00	1.184e+00
237        	-2.822e+00	-1.259e+00	-3.286e+00	-4.465e+00	1.179e+00
238        	-2.814e+00	-1.258e+00	-3.280e+00	-4.454e+00	1.174e+00
239        	-2.807e+00	-1.258e+00	-3.273e+00	-4.444e+00	1.170e+00
240        	-2.801e+00	-1.257e+00	-3.268e+00	-4.435e+00	1.167e+00
241        	-2.796e+00	-1.256e+00	-3.263e+00	-4.428e+00	1.165e+00
242        	-2.793e+00	-1.256e+00	-3.260e+00	-4.424e+00	1.163e+00
243        	-2.792e+00	-1.255e+00	-3.259e+00	-4.422e+00	1.163e+00
244        	-2.793e+00	-1.255e+00	-3.259e+00	-4.422e+00	1.163e+00
245        	-2.794e+00	-1.255e+00	-3.260e+00	-4.424e+00	1.164e+00
246        	-2.796e+00	-1.255e+00	-3.262e+00	-4.427e+00	1.165e+00
247        	-2.799e+00	-1.256e+00	-3.265e+00	-4.431e+00	1.167e+00
248        	-2.802e+00	-1.256e+00	-3.267e+00	-4.435e+00	1.168e+00
249        	-2.804e+00	-1.257e+00	-3.269e+00	-4.439e+00	1.170e+00
250        	-2.807e+00	-1.257e+00	-3.271e+00	-4.442e+00	1.171e+00
251        	-2.810e+00	-1.258e+00	-3.273e+00	-4.446e+00	1.173e+00
252        	-2.812e+00	-1.259e+00	-3.275e+00	-4.450e+00	1.175e+00
253        	-2.815e+00	-1.260e+00	-3.277e+00	-4.454e+00	1.177e+00
254        	-2.819e+00	-1.261e+00	-3.280e+00	-4.459e+00	1.179e+00
255        	-2.822e+00	-1.262e+00	-3.284e+00	-4.464e+00	1.180e+00
256        	-2.825e+00	-1.263e+00	-3.287e+00	-4.469e+00	1.182e+00
257        	-2.828e+00	-1.264e+00	-3.289e+00	-4.473e+00	1.183e+00
258        	-2.830e+00	-1.265e+00	-3.291e+00	-4.475e+00	1.184e+00
259        	-2.831e+00	-1.265e+00	-3.292e+00	-4.477e+00	1.185e+00
260        	-2.832e+00	-1.265e+00	-3.292e+00	-4.478e+00	1.186e+00
261        	-2.831e+00	-1.266e+00	-3.292e+00	-4.477e+00	1.185e+00
262        	-2.831e+00	-1.266e+00	-3.291e+00	-4.476e+00	1.185e+00
263        	-2.829e+00	-1.266e+00	-3.289e+00	-4.474e+00	1.184e+00
264        	-2.827e+00	-1.266e+00	-3.288e+00	-4.471e+00	1.184e+00
265        	-2.825e+00	-1.266e+00	-3.285e+00	-4.468e+00	1.182e+00
266        	-2.822e+00	-1.266e+00	-3.283e+00	-4.464e+00	1.181e+00
267        	-2.819e+00	-1.266e+00	-3.280e+00	-4.459e+00	1.179e+00
268        	-2.815e+00	-1.267e+00	-3.276e+00	-4.453e+00	1.177e+00
269        	-2.810e+00	-1.267e+00	-3.271e+00	-4.446e+00	1.175e+00
270        	-2.804e+00	-1.268e+00	-3.266e+00	-4.437e+00	1.172e+00
271        	-2.798e+00	-1.269e+00	-3.259e+00	-4.427e+00	1.168e+00
272        	-2.790e+00	-1.269e+00	-3.251e+00	-4.416e+00	1.164e+00
273        	-2.782e+00	-1.270e+00	-3.243e+00	-4.404e+00	1.161e+00
274        	-2.774e+00	-1.272e+00	-3.235e+00	-4.392e+00	1.157e+00
275        	-2.767e+00	-1.273e+00	-3.227e+00	-4.380e+00	1.154e+00
276        	-2.761e+00	-1.275e+00	-3.220e+00	-4.371e+00	1.151e+00
277        	-2.756e+00	-1.276e+00	-3.214e+00	-4.363e+00	1.148e+00
278        	-2.752e+00	-1.278e+00	-3.210e+00	-4.357e+00	1.147e+00
279        	-2.749e+00	-1.279e+00	-3.207e+00	-4.353e+00	1.145e+00
280        	-2.747e+00	-1.281e+00	-3.206e+00	-4.350e+00	1.144e+00
281        	-2.746e+00	-1.282e+00	-3.206e+00	-4.349e+00	1.143e+00
282        	-2.746e+00	-1.283e+00	-3.207e+00	-4.349e+00	1.143e+00
283        	-2.746e+00	-1.283e+00	-3.208e+00	-4.350e+00	1.142e+00
284        	-2.747e+00	-1.284e+00	-3.211e+00	-4.352e+00	1.142e+00
285        	-2.748e+00	-1.284e+00	-3.214e+00	-4.355e+00	1.141e+00
286        	-2.749e+00	-1.283e+00	-3.217e+00	-4.358e+00	1.141e+00
287        	-2.750e+00	-1.283e+00	-3.221e+00	-4.361e+00	1.140e+00
288        	-2.751e+00	-1.282e+00	-3.224e+00	-4.363e+00	1.139e+00
289        	-2.751e+00	-1.281e+00	-3.227e+00	-4.365e+00	1.138e+00
290        	-2.751e+00	-1.280e+00	-3.229e+00	-4.365e+00	1.136e+00
291        	-2.749e+00	-1.279e+00	-3.230e+00	-4.364e+00	1.134e+00
292        	-2.746e+00	-1.278e+00	-3.228e+00	-4.360e+00	1.132e+00
293        	-2.742e+00	-1.277e+00	-3.225e+00	-4.354e+00	1.129e+00
294        	-2.736e+00	-1.276e+00	-3.221e+00	-4.347e+00	1.126e+00
295        	-2.730e+00	-1.275e+00	-3.215e+00	-4.338e+00	1.122e+00
296        	-2.724e+00	-1.275e+00	-3.210e+00	-4.329e+00	1.119e+00
297        	-2.718e+00	-1.274e+00	-3.204e+00	-4.320e+00	1.116e+00
298        	-2.713e+00	-1.274e+00	-3.199e+00	-4.312e+00	1.113e+00
299        	-2.708e+00	-1.273e+00	-3.194e+00	-4.305e+00	1.111e+00
300        	-2.705e+00	-1.273e+00	-3.191e+00	-4.300e+00	1.109e+00
301        	-2.703e+00	-1.272e+00	-3.189e+00	-4.297e+00	1.108e+00
302        	-2.701e+00	-1.272e+00	-3.187e+00	-4.295e+00	1.108e+00
303        	-2.700e+00	-1.271e+00	-3.186e+00	-4.293e+00	1.107e+00
304        	-2.700e+00	-1.271e+00	-3.185e+00	-4.292e+00	1.107e+00
305        	-2.699e+00	-1.270e+00	-3.185e+00	-4.292e+00	1.107e+00
306        	-2.700e+00	-1.270e+00	-3.185e+00	-4.292e+00	1.107e+00
307        	-2.700e+00	-1.269e+00	-3.185e+00	-4.292e+00	1.108e+00
308        	-2.700e+00	-1.269e+00	-3.185e+00	-4.293e+00	1.108e+00
309        	-2.701e+00	-1.269e+00	-3.186e+00	-4.294e+00	1.109e+00
310        	-2.703e+00	-1.269e+00	-3.187e+00	-4.296e+00	1.109e+00
311        	-2.704e+00	-1.269e+00	-3.188e+00	-4.298e+00	1.111e+00
312        	-2.707e+00	-1.270e+00	-3.190e+00	-4.301e+00	1.112e+00
313        	-2.709e+00	-1.270e+00	-3.191e+00	-4.304e+00	1.113e+00
314        	-2.711e+00	-1.271e+00	-3.193e+00	-4.307e+00	1.114e+00
315        	-2.713e+00	-1.271e+00	-3.195e+00	-4.310e+00	1.116e+00
316        	-2.715e+00	-1.271e+00	-3.196e+00	-4.313e+00	1.117e+00
317        	-2.717e+00	-1.270e+00	-3.198e+00	-4.316e+00	1.118e+00
318        	-2.719e+00	-1.270e+00	-3.200e+00	-4.319e+00	1.119e+00
319        	-2.722e+00	-1.269e+00	-3.202e+00	-4.323e+00	1.121e+00
320        	-2.724e+00	-1.268e+00	-3.204e+00	-4.326e+00	1.122e+00
321        	-2.727e+00	-1.266e+00	-3.206e+00	-4.330e+00	1.123e+00
322        	-2.729e+00	-1.265e+00	-3.208e+00	-4.333e+00	1.125e+00
323        	-2.731e+00	-1.263e+00	-3.210e+00	-4.336e+00	1.126e+00
324        	-2.733e+00	-1.262e+00	-3.212e+00	-4.339e+00	1.128e+00
325        	-2.735e+00	-1.261e+00	-3.213e+00	-4.342e+00	1.129e+00
326        	-2.737e+00	-1.260e+00	-3.215e+00	-4.345e+00	1.130e+00
327        	-2.739e+00	-1.259e+00	-3.216e+00	-4.348e+00	1.131e+00
328        	-2.742e+00	-1.258e+00	-3.218e+00	-4.350e+00	1.133e+00
329        	-2.744e+00	-1.257e+00	-3.219e+00	-4.354e+00	1.134e+00
330        	-2.746e+00	-1.257e+00	-3.222e+00	-4.357e+00	1.136e+00
331        	-2.749e+00	-1.257e+00	-3.224e+00	-4.362e+00	1.137e+00
332        	-2.753e+00	-1.257e+00	-3.228e+00	-4.367e+00	1.139e+00
333        	-2.758e+00	-1.258e+00	-3.232e+00	-4.373e+00	1.142e+00
334        	-2.762e+00	-1.258e+00	-3.237e+00	-4.381e+00	1.144e+00
335        	-2.767e+00	-1.259e+00	-3.242e+00	-4.388e+00	1.146e+00
336        	-2.772e+00	-1.259e+00	-3.247e+00	-4.396e+00	1.149e+00
337        	-2.776e+00	-1.260e+00	-3.252e+00	-4.402e+00	1.150e+00
338        	-2.779e+00	-1.261e+00	-3.255e+00	-4.407e+00	1.152e+00
339        	-2.781e+00	-1.261e+00	-3.258e+00	-4.410e+00	1.152e+00
340        	-2.781e+00	-1.262e+00	-3.259e+00	-4.411e+00	1.152e+00
341        	-2.780e+00	-1.262e+00	-3.259e+00	-4.410e+00	1.151e+00
342        	-2.778e+00	-1.262e+00	-3.258e+00	-4.407e+00	1.149e+00
343        	-2.775e+00	-1.263e+00	-3.256e+00	-4.403e+00	1.147e+00
344        	-2.771e+00	-1.263e+00	-3.253e+00	-4.398e+00	1.144e+00
345        	-2.767e+00	-1.264e+00	-3.250e+00	-4.392e+00	1.142e+00
346        	-2.763e+00	-1.265e+00	-3.247e+00	-4.386e+00	1.140e+00
347        	-2.759e+00	-1.265e+00	-3.244e+00	-4.381e+00	1.137e+00
348        	-2.756e+00	-1.266e+00	-3.241e+00	-4.377e+00	1.136e+00
349        	-2.754e+00	-1.266e+00	-3.239e+00	-4.373e+00	1.134e+00
350        	-2.752e+00	-1.267e+00	-3.237e+00	-4.371e+00	1.134e+00
351        	-2.752e+00	-1.268e+00	-3.236e+00	-4.370e+00	1.134e+00
352        	-2.752e+00	-1.268e+00	-3.235e+00	-4.369e+00	1.134e+00
353        	-2.752e+00	-1.269e+00	-3.235e+00	-4.370e+00	1.135e+00
354        	-2.753e+00	-1.270e+00	-3.235e+00	-4.371e+00	1.136e+00
355        	-2.754e+00	-1.270e+00	-3.235e+00	-4.372e+00	1.137e+00
356        	-2.756e+00	-1.270e+00	-3.235e+00	-4.373e+00	1.138e+00
357        	-2.757e+00	-1.270e+00	-3.235e+00	-4.375e+00	1.140e+00
358        	-2.759e+00	-1.270e+00	-3.236e+00	-4.377e+00	1.141e+00
359        	-2.761e+00	-1.270e+00	-3.237e+00	-4.379e+00	1.142e+00
360        	-2.762e+00	-1.271e+00	-3.237e+00	-4.381e+00	1.144e+00
